 Entering Gaussian System, Link 0=g16
 Initial command:
 /soft/gaussian/16-a.03/AVX2/g16/l1.exe "/scratch/Gau-143094.inp" -scrdir="/scratch/"
 Default CPUs for threads: 0-35
 Default linda workers: bdw-0602
 Default is to use  36 SMP processors on each worker.
 Entering Link 1 = /soft/gaussian/16-a.03/AVX2/g16/l1.exe PID=    143095.
  
 Copyright (c) 1988,1990,1992,1993,1995,1998,2003,2009,2016,
            Gaussian, Inc.  All Rights Reserved.
  
 This is part of the Gaussian(R) 16 program.  It is based on
 the Gaussian(R) 09 system (copyright 2009, Gaussian, Inc.),
 the Gaussian(R) 03 system (copyright 2003, Gaussian, Inc.),
 the Gaussian(R) 98 system (copyright 1998, Gaussian, Inc.),
 the Gaussian(R) 94 system (copyright 1995, Gaussian, Inc.),
 the Gaussian 92(TM) system (copyright 1992, Gaussian, Inc.),
 the Gaussian 90(TM) system (copyright 1990, Gaussian, Inc.),
 the Gaussian 88(TM) system (copyright 1988, Gaussian, Inc.),
 the Gaussian 86(TM) system (copyright 1986, Carnegie Mellon
 University), and the Gaussian 82(TM) system (copyright 1983,
 Carnegie Mellon University). Gaussian is a federally registered
 trademark of Gaussian, Inc.
  
 This software contains proprietary and confidential information,
 including trade secrets, belonging to Gaussian, Inc.
  
 This software is provided under written license and may be
 used, copied, transmitted, or stored only in accord with that
 written license.
  
 The following legend is applicable only to US Government
 contracts under FAR:
  
                    RESTRICTED RIGHTS LEGEND
  
 Use, reproduction and disclosure by the US Government is
 subject to restrictions as set forth in subparagraphs (a)
 and (c) of the Commercial Computer Software - Restricted
 Rights clause in FAR 52.227-19.
  
 Gaussian, Inc.
 340 Quinnipiac St., Bldg. 40, Wallingford CT 06492
  
  
 ---------------------------------------------------------------
 Warning -- This program may not be used in any manner that
 competes with the business of Gaussian, Inc. or will provide
 assistance to any competitor of Gaussian, Inc.  The licensee
 of this program is prohibited from giving any competitor of
 Gaussian, Inc. access to this program.  By using this program,
 the user acknowledges that Gaussian, Inc. is engaged in the
 business of creating and licensing software in the field of
 computational chemistry and represents and warrants to the
 licensee that it is not a competitor of Gaussian, Inc. and that
 it will not use this program in any manner prohibited above.
 ---------------------------------------------------------------
  

 Cite this work as:
 Gaussian 16, Revision A.03,
 M. J. Frisch, G. W. Trucks, H. B. Schlegel, G. E. Scuseria, 
 M. A. Robb, J. R. Cheeseman, G. Scalmani, V. Barone, 
 G. A. Petersson, H. Nakatsuji, X. Li, M. Caricato, A. V. Marenich, 
 J. Bloino, B. G. Janesko, R. Gomperts, B. Mennucci, H. P. Hratchian, 
 J. V. Ortiz, A. F. Izmaylov, J. L. Sonnenberg, D. Williams-Young, 
 F. Ding, F. Lipparini, F. Egidi, J. Goings, B. Peng, A. Petrone, 
 T. Henderson, D. Ranasinghe, V. G. Zakrzewski, J. Gao, N. Rega, 
 G. Zheng, W. Liang, M. Hada, M. Ehara, K. Toyota, R. Fukuda, 
 J. Hasegawa, M. Ishida, T. Nakajima, Y. Honda, O. Kitao, H. Nakai, 
 T. Vreven, K. Throssell, J. A. Montgomery, Jr., J. E. Peralta, 
 F. Ogliaro, M. J. Bearpark, J. J. Heyd, E. N. Brothers, K. N. Kudin, 
 V. N. Staroverov, T. A. Keith, R. Kobayashi, J. Normand, 
 K. Raghavachari, A. P. Rendell, J. C. Burant, S. S. Iyengar, 
 J. Tomasi, M. Cossi, J. M. Millam, M. Klene, C. Adamo, R. Cammi, 
 J. W. Ochterski, R. L. Martin, K. Morokuma, O. Farkas, 
 J. B. Foresman, and D. J. Fox, Gaussian, Inc., Wallingford CT, 2016.
 
 ******************************************
 Gaussian 16:  ES64L-G16RevA.03 25-Dec-2016
                16-Oct-2019 
 ******************************************
 SetSPE:  set environment variable "MP_BIND" = "yes"
 SetSPE:  set environment variable "MP_BLIST" = "0,1,2,3,4,5,6,7,8,9,10,11,12,13,14,15,16,17,18,19,20,21,22,23,24,25,26,27,28,29,30,31,32,33,34,35"
 SetLPE:  input flags="-vv "
 SetLPE:    new flags="-vv -opt 'Tsnet.Node.lindarsharg: ssh'  -nodelist 'bdw-0602.lcrc.anl.gov' -env GAUSS_MDEF=13421772800 -env GAUSS_EXEDIR="/soft/gaussian/16-a.03/AVX2/g16/bsd:/soft/gaussian/16-a.03/AVX2/g16" -env MP_BIND=yes -env MP_BLIST=0,1,2,3,4,5,6,7,8,9,10,11,12,13,14,15,16,17,18,19,20,21,22,23,24,25,26,27,28,29,30,31,32,33,34,35 -env GAUSS_ADEF=0,1,2,3,4,5,6,7,8,9,10,11,12,13,14,15,16,17,18,19,20,21,22,23,24,25,26,27,28,29,30,31,32,33,34,35"
 Will use up to    1 processors via Linda.
 --------------------------------
 #P b3lyp/6-31G(d) OPT=Tight Freq
 --------------------------------
 1/7=10,18=20,19=15,26=3,38=1/1,3;
 2/9=110,12=2,17=6,18=5,40=1/2;
 3/5=1,6=6,7=1,11=2,25=1,30=1,71=1,74=-5/1,2,3;
 4//1;
 5/5=2,38=5/2;
 6/7=2,8=2,9=2,10=2,28=1/1;
 7//1,2,3,16;
 1/7=10,18=20,19=15,26=3/3(2);
 2/9=110/2;
 99//99;
 2/9=110/2;
 3/5=1,6=6,7=1,11=2,25=1,30=1,71=1,74=-5/1,2,3;
 4/5=5,16=3,69=1/1;
 5/5=2,38=5/2;
 7//1,2,3,16;
 1/7=10,18=20,19=15,26=3/3(-5);
 2/9=110/2;
 6/7=2,8=2,9=2,10=2,19=2,28=1/1;
 99/9=1/99;
 Leave Link    1 at Wed Oct 16 19:56:02 2019, MaxMem=           0 cpu:               2.6 elap:               0.1
 (Enter /soft/gaussian/16-a.03/AVX2/g16/l101.exe)
 -----
 H4 C1
 -----
 Symbolic Z-matrix:
 Charge =  0 Multiplicity = 1
 C
 H                    1    B1
 H                    1    B2       2    A2
 H                    1    B3       2    A3       3    D3       0
 H                    1    B4       4    A4       3    D4       0
       Variables:
  B1                    1.09216                  
  B2                    1.09218                  
  A2                  109.4703                   
  B3                    1.0922                   
  A3                  109.47104                  
  D3                 -120.0059                   
  B4                    1.09219                  
  A4                  109.46675                  
  D4                 -119.99765                  
 
     2 tetrahedral angles replaced.
 ITRead=  0  0  0  0  0
 MicOpt= -1 -1 -1 -1 -1
 NAtoms=      5 NQM=        5 NQMF=       0 NMMI=      0 NMMIF=      0
                NMic=       0 NMicF=      0.
                    Isotopes and Nuclear Properties:
 (Nuclear quadrupole moments (NQMom) in fm**2, nuclear magnetic moments (NMagM)
  in nuclear magnetons)

  Atom         1           2           3           4           5
 IAtWgt=          12           1           1           1           1
 AtmWgt=  12.0000000   1.0078250   1.0078250   1.0078250   1.0078250
 NucSpn=           0           1           1           1           1
 AtZEff=  -0.0000000  -0.0000000  -0.0000000  -0.0000000  -0.0000000
 NQMom=    0.0000000   0.0000000   0.0000000   0.0000000   0.0000000
 NMagM=    0.0000000   2.7928460   2.7928460   2.7928460   2.7928460
 AtZNuc=   6.0000000   1.0000000   1.0000000   1.0000000   1.0000000
 Leave Link  101 at Wed Oct 16 19:56:02 2019, MaxMem= 13421772800 cpu:              12.3 elap:               0.4
 (Enter /soft/gaussian/16-a.03/AVX2/g16/l103.exe)

 GradGradGradGradGradGradGradGradGradGradGradGradGradGradGradGradGradGrad
 Berny optimization.
 Initialization pass.
                           ----------------------------
                           !    Initial Parameters    !
                           ! (Angstroms and Degrees)  !
 --------------------------                            --------------------------
 ! Name  Definition              Value          Derivative Info.                !
 --------------------------------------------------------------------------------
 ! R1    R(1,2)                  1.0922         estimate D2E/DX2                !
 ! R2    R(1,3)                  1.0922         estimate D2E/DX2                !
 ! R3    R(1,4)                  1.0922         estimate D2E/DX2                !
 ! R4    R(1,5)                  1.0922         estimate D2E/DX2                !
 ! A1    A(2,1,3)              109.4712         estimate D2E/DX2                !
 ! A2    A(2,1,4)              109.4712         estimate D2E/DX2                !
 ! A3    A(2,1,5)              109.473          estimate D2E/DX2                !
 ! A4    A(3,1,4)              109.476          estimate D2E/DX2                !
 ! A5    A(3,1,5)              109.4691         estimate D2E/DX2                !
 ! A6    A(4,1,5)              109.4668         estimate D2E/DX2                !
 ! D1    D(2,1,4,3)            120.0029         estimate D2E/DX2                !
 ! D2    D(2,1,5,3)           -119.9998         estimate D2E/DX2                !
 ! D3    D(2,1,5,4)            119.9983         estimate D2E/DX2                !
 ! D4    D(3,1,5,4)           -120.0019         estimate D2E/DX2                !
 --------------------------------------------------------------------------------
 Trust Radius=3.00D-01 FncErr=1.00D-07 GrdErr=1.00D-06 EigMax=2.50D+02 EigMin=1.00D-04
 Number of steps in this run=     24 maximum allowed number of steps=    100.
 GradGradGradGradGradGradGradGradGradGradGradGradGradGradGradGradGradGrad

 Leave Link  103 at Wed Oct 16 19:56:02 2019, MaxMem= 13421772800 cpu:               0.6 elap:               0.1
 (Enter /soft/gaussian/16-a.03/AVX2/g16/l202.exe)
                          Input orientation:                          
 ---------------------------------------------------------------------
 Center     Atomic      Atomic             Coordinates (Angstroms)
 Number     Number       Type             X           Y           Z
 ---------------------------------------------------------------------
      1          6           0        0.000000    0.000000    0.000000
      2          1           0        0.000000    0.000000    1.092156
      3          1           0        1.029720    0.000000   -0.364061
      4          1           0       -0.514959    0.891723   -0.364066
      5          1           0       -0.514835   -0.891775   -0.364095
 ---------------------------------------------------------------------
                    Distance matrix (angstroms):
                    1          2          3          4          5
     1  C    0.000000
     2  H    1.092156   0.000000
     3  H    1.092183   1.783505   0.000000
     4  H    1.092198   1.783518   1.783593   0.000000
     5  H    1.092192   1.783532   1.783512   1.783498   0.000000
 Stoichiometry    CH4
 Framework group  C1[X(CH4)]
 Deg. of freedom     9
 Full point group                 C1      NOp   1
 Largest Abelian subgroup         C1      NOp   1
 Largest concise Abelian subgroup C1      NOp   1
                         Standard orientation:                         
 ---------------------------------------------------------------------
 Center     Atomic      Atomic             Coordinates (Angstroms)
 Number     Number       Type             X           Y           Z
 ---------------------------------------------------------------------
      1          6           0        0.000006    0.000009   -0.000003
      2          1           0        0.181904    0.911314    0.573792
      3          1           0        0.871610   -0.219628   -0.620431
      4          1           0       -0.875222    0.140189   -0.638144
      5          1           0       -0.178327   -0.831929    0.684803
 ---------------------------------------------------------------------
 Rotational constants (GHZ):         157.6485326         157.6427210         157.6360098
 Leave Link  202 at Wed Oct 16 19:56:03 2019, MaxMem= 13421772800 cpu:               1.3 elap:               0.1
 (Enter /soft/gaussian/16-a.03/AVX2/g16/l301.exe)
 Standard basis: 6-31G(d) (6D, 7F)
 Ernie: Thresh=  0.10000D-02 Tol=  0.10000D-05 Strict=F.
 There are    23 symmetry adapted cartesian basis functions of A   symmetry.
 There are    23 symmetry adapted basis functions of A   symmetry.
    23 basis functions,    44 primitive gaussians,    23 cartesian basis functions
     5 alpha electrons        5 beta electrons
       nuclear repulsion energy        13.4085444911 Hartrees.
 IExCor=  402 DFT=T Ex+Corr=B3LYP ExCW=0 ScaHFX=  0.200000
 ScaDFX=  0.800000  0.720000  1.000000  0.810000 ScalE2=  1.000000  1.000000
 IRadAn=      5 IRanWt=     -1 IRanGd=            0 ICorTp=0 IEmpDi=  4
 NAtoms=    5 NActive=    5 NUniq=    5 SFac= 1.00D+00 NAtFMM=   60 NAOKFM=F Big=F
 Integral buffers will be    131072 words long.
 Raffenetti 2 integral format.
 Two-electron integral symmetry is turned on.
 Leave Link  301 at Wed Oct 16 19:56:03 2019, MaxMem= 13421772800 cpu:               2.1 elap:               0.1
 (Enter /soft/gaussian/16-a.03/AVX2/g16/l302.exe)
 NPDir=0 NMtPBC=     1 NCelOv=     1 NCel=       1 NClECP=     1 NCelD=      1
         NCelK=      1 NCelE2=     1 NClLst=     1 CellRange=     0.0.
 One-electron integrals computed using PRISM.
 One-electron integral symmetry used in STVInt
 NBasis=    23 RedAO= T EigKep=  1.79D-02  NBF=    23
 NBsUse=    23 1.00D-06 EigRej= -1.00D+00 NBFU=    23
 Precomputing XC quadrature grid using
 IXCGrd= 4 IRadAn=           5 IRanWt=          -1 IRanGd=           0 AccXCQ= 0.00D+00.
 Generated NRdTot=       0 NPtTot=           0 NUsed=           0 NTot=          32
 NSgBfM=    23    23    23    23    23 MxSgAt=     5 MxSgA2=     5.
 Leave Link  302 at Wed Oct 16 19:56:03 2019, MaxMem= 13421772800 cpu:               5.4 elap:               0.2
 (Enter /soft/gaussian/16-a.03/AVX2/g16/l303.exe)
 DipDrv:  MaxL=1.
 Leave Link  303 at Wed Oct 16 19:56:04 2019, MaxMem= 13421772800 cpu:               1.7 elap:               0.2
 (Enter /soft/gaussian/16-a.03/AVX2/g16/l401.exe)
 ExpMin= 1.61D-01 ExpMax= 3.05D+03 ExpMxC= 4.57D+02 IAcc=3 IRadAn=         5 AccDes= 0.00D+00
 Harris functional with IExCor=  402 and IRadAn=       5 diagonalized for initial guess.
 HarFok:  IExCor=  402 AccDes= 0.00D+00 IRadAn=         5 IDoV= 1 UseB2=F ITyADJ=14
 ICtDFT=  3500011 ScaDFX=  1.000000  1.000000  1.000000  1.000000
 FoFCou: FMM=F IPFlag=           0 FMFlag=      100000 FMFlg1=           0
         NFxFlg=           0 DoJE=T BraDBF=F KetDBF=T FulRan=T
         wScrn=  0.000000 ICntrl=       500 IOpCl=  0 I1Cent=   200000004 NGrid=           0
         NMat0=    1 NMatS0=      1 NMatT0=    0 NMatD0=    1 NMtDS0=    0 NMtDT0=    0
 Petite list used in FoFCou.
 Harris En= -40.5609560948940    
 JPrj=0 DoOrth=F DoCkMO=F.
 Leave Link  401 at Wed Oct 16 19:56:05 2019, MaxMem= 13421772800 cpu:               8.1 elap:               0.4
 (Enter /soft/gaussian/16-a.03/AVX2/g16/l502.exe)
 Keep R1 ints in memory in canonical form, NReq=31068512.
 FoFCou: FMM=F IPFlag=           0 FMFlag=           0 FMFlg1=           0
         NFxFlg=           0 DoJE=F BraDBF=F KetDBF=F FulRan=T
         wScrn=  0.000000 ICntrl=       600 IOpCl=  0 I1Cent=           0 NGrid=           0
         NMat0=    1 NMatS0=    276 NMatT0=    0 NMatD0=    1 NMtDS0=    0 NMtDT0=    0
 Symmetry not used in FoFCou.
 Two-electron integral symmetry not used.
 Closed shell SCF:
 Using DIIS extrapolation, IDIIS=  1040.
 NGot= 13421772800 LenX= 13421732188 LenY= 13421731218
 Requested convergence on RMS density matrix=1.00D-08 within 128 cycles.
 Requested convergence on MAX density matrix=1.00D-06.
 Requested convergence on             energy=1.00D-06.
 No special actions if energy rises.
 Integral accuracy reduced to 1.0D-05 until final iterations.

 Cycle   1  Pass 0  IDiag  1:
 E= -40.4290627874843    
 DIIS: error= 7.11D-02 at cycle   1 NSaved=   1.
 NSaved= 1 IEnMin= 1 EnMin= -40.4290627874843     IErMin= 1 ErrMin= 7.11D-02
 ErrMax= 7.11D-02  0.00D+00 EMaxC= 1.00D-01 BMatC= 8.24D-02 BMatP= 8.24D-02
 IDIUse=3 WtCom= 2.89D-01 WtEn= 7.11D-01
 Coeff-Com:  0.100D+01
 Coeff-En:   0.100D+01
 Coeff:      0.100D+01
 Gap=     0.431 Goal=   None    Shift=    0.000
 GapD=    0.431 DampG=2.000 DampE=0.500 DampFc=1.0000 IDamp=-1.
 RMSDP=2.23D-02 MaxDP=1.54D-01              OVMax= 1.89D-01

 Cycle   2  Pass 0  IDiag  1:
 E= -40.4080315786031     Delta-E=        0.021031208881 Rises=F Damp=F
 DIIS: error= 7.66D-02 at cycle   2 NSaved=   2.
 NSaved= 2 IEnMin= 1 EnMin= -40.4290627874843     IErMin= 1 ErrMin= 7.11D-02
 ErrMax= 7.66D-02  0.00D+00 EMaxC= 1.00D-01 BMatC= 1.01D-01 BMatP= 8.24D-02
 IDIUse=2 WtCom= 0.00D+00 WtEn= 1.00D+00
 Coeff-En:   0.550D+00 0.450D+00
 Coeff:      0.550D+00 0.450D+00
 Gap=     0.498 Goal=   None    Shift=    0.000
 RMSDP=1.13D-02 MaxDP=7.02D-02 DE= 2.10D-02 OVMax= 9.41D-02

 Cycle   3  Pass 0  IDiag  1:
 E= -40.5181221798202     Delta-E=       -0.110090601217 Rises=F Damp=F
 DIIS: error= 3.83D-03 at cycle   3 NSaved=   3.
 NSaved= 3 IEnMin= 3 EnMin= -40.5181221798202     IErMin= 3 ErrMin= 3.83D-03
 ErrMax= 3.83D-03  0.00D+00 EMaxC= 1.00D-01 BMatC= 2.63D-04 BMatP= 8.24D-02
 IDIUse=3 WtCom= 9.62D-01 WtEn= 3.83D-02
 Coeff-Com:  0.140D-01-0.397D-01 0.103D+01
 Coeff-En:   0.000D+00 0.000D+00 0.100D+01
 Coeff:      0.135D-01-0.382D-01 0.102D+01
 Gap=     0.507 Goal=   None    Shift=    0.000
 RMSDP=5.06D-04 MaxDP=3.99D-03 DE=-1.10D-01 OVMax= 4.49D-03

 Cycle   4  Pass 0  IDiag  1:
 E= -40.5183809131465     Delta-E=       -0.000258733326 Rises=F Damp=F
 DIIS: error= 3.16D-05 at cycle   4 NSaved=   4.
 NSaved= 4 IEnMin= 4 EnMin= -40.5183809131465     IErMin= 4 ErrMin= 3.16D-05
 ErrMax= 3.16D-05  0.00D+00 EMaxC= 1.00D-01 BMatC= 2.20D-08 BMatP= 2.63D-04
 IDIUse=1 WtCom= 1.00D+00 WtEn= 0.00D+00
 Coeff-Com:  0.140D-02-0.939D-03 0.397D-01 0.960D+00
 Coeff:      0.140D-02-0.939D-03 0.397D-01 0.960D+00
 Gap=     0.507 Goal=   None    Shift=    0.000
 RMSDP=5.50D-06 MaxDP=2.78D-05 DE=-2.59D-04 OVMax= 4.85D-05

 Initial convergence to 1.0D-05 achieved.  Increase integral accuracy.
 Cycle   5  Pass 1  IDiag  1:
 E= -40.5183803059184     Delta-E=        0.000000607228 Rises=F Damp=F
 DIIS: error= 6.19D-06 at cycle   1 NSaved=   1.
 NSaved= 1 IEnMin= 1 EnMin= -40.5183803059184     IErMin= 1 ErrMin= 6.19D-06
 ErrMax= 6.19D-06  0.00D+00 EMaxC= 1.00D-01 BMatC= 8.21D-10 BMatP= 8.21D-10
 IDIUse=1 WtCom= 1.00D+00 WtEn= 0.00D+00
 Coeff-Com:  0.100D+01
 Coeff:      0.100D+01
 Gap=     0.507 Goal=   None    Shift=    0.000
 RMSDP=5.50D-06 MaxDP=2.78D-05 DE= 6.07D-07 OVMax= 1.45D-05

 Cycle   6  Pass 1  IDiag  1:
 E= -40.5183803058099     Delta-E=        0.000000000108 Rises=F Damp=F
 DIIS: error= 6.95D-06 at cycle   2 NSaved=   2.
 NSaved= 2 IEnMin= 1 EnMin= -40.5183803059184     IErMin= 1 ErrMin= 6.19D-06
 ErrMax= 6.95D-06  0.00D+00 EMaxC= 1.00D-01 BMatC= 8.34D-10 BMatP= 8.21D-10
 IDIUse=1 WtCom= 1.00D+00 WtEn= 0.00D+00
 Coeff-Com:  0.502D+00 0.498D+00
 Coeff:      0.502D+00 0.498D+00
 Gap=     0.507 Goal=   None    Shift=    0.000
 RMSDP=1.05D-06 MaxDP=7.91D-06 DE= 1.08D-10 OVMax= 9.25D-06

 Cycle   7  Pass 1  IDiag  1:
 E= -40.5183803066480     Delta-E=       -0.000000000838 Rises=F Damp=F
 DIIS: error= 5.32D-07 at cycle   3 NSaved=   3.
 NSaved= 3 IEnMin= 3 EnMin= -40.5183803066480     IErMin= 3 ErrMin= 5.32D-07
 ErrMax= 5.32D-07  0.00D+00 EMaxC= 1.00D-01 BMatC= 5.26D-12 BMatP= 8.21D-10
 IDIUse=1 WtCom= 1.00D+00 WtEn= 0.00D+00
 Coeff-Com: -0.298D-01 0.485D-01 0.981D+00
 Coeff:     -0.298D-01 0.485D-01 0.981D+00
 Gap=     0.507 Goal=   None    Shift=    0.000
 RMSDP=7.04D-08 MaxDP=5.81D-07 DE=-8.38D-10 OVMax= 6.64D-07

 Cycle   8  Pass 1  IDiag  1:
 E= -40.5183803066531     Delta-E=       -0.000000000005 Rises=F Damp=F
 DIIS: error= 8.86D-09 at cycle   4 NSaved=   4.
 NSaved= 4 IEnMin= 4 EnMin= -40.5183803066531     IErMin= 4 ErrMin= 8.86D-09
 ErrMax= 8.86D-09  0.00D+00 EMaxC= 1.00D-01 BMatC= 1.64D-15 BMatP= 5.26D-12
 IDIUse=1 WtCom= 1.00D+00 WtEn= 0.00D+00
 Coeff-Com: -0.388D-02-0.855D-04 0.571D-01 0.947D+00
 Coeff:     -0.388D-02-0.855D-04 0.571D-01 0.947D+00
 Gap=     0.507 Goal=   None    Shift=    0.000
 RMSDP=3.20D-09 MaxDP=1.85D-08 DE=-5.05D-12 OVMax= 2.09D-08

 SCF Done:  E(RB3LYP) =  -40.5183803067     A.U. after    8 cycles
            NFock=  8  Conv=0.32D-08     -V/T= 2.0110
 KE= 4.007663399799D+01 PE=-1.198604805455D+02 EE= 2.585692174968D+01
 Leave Link  502 at Wed Oct 16 19:56:06 2019, MaxMem= 13421772800 cpu:               9.7 elap:               0.4
 (Enter /soft/gaussian/16-a.03/AVX2/g16/l601.exe)
 Copying SCF densities to generalized density rwf, IOpCl= 0 IROHF=0.

 **********************************************************************

            Population analysis using the SCF density.

 **********************************************************************

 Orbital symmetries:
       Occupied  (A) (A) (A) (A) (A)
       Virtual   (A) (A) (A) (A) (A) (A) (A) (A) (A) (A) (A) (A)
                 (A) (A) (A) (A) (A) (A)
 The electronic state is 1-A.
 Alpha  occ. eigenvalues --  -10.16649  -0.69063  -0.38925  -0.38925  -0.38923
 Alpha virt. eigenvalues --    0.11818   0.17687   0.17688   0.17689   0.53292
 Alpha virt. eigenvalues --    0.53293   0.53294   0.89854   0.89856   0.89857
 Alpha virt. eigenvalues --    0.94908   1.10018   1.65630   1.65631   2.24506
 Alpha virt. eigenvalues --    2.24508   2.24510   4.17996
          Condensed to atoms (all electrons):
               1          2          3          4          5
     1  C    5.092735   0.383985   0.383982   0.383980   0.383979
     2  H    0.383985   0.539291  -0.026818  -0.026817  -0.026814
     3  H    0.383982  -0.026818   0.539297  -0.026810  -0.026818
     4  H    0.383980  -0.026817  -0.026810   0.539306  -0.026820
     5  H    0.383979  -0.026814  -0.026818  -0.026820   0.539312
 Mulliken charges:
               1
     1  C   -0.628662
     2  H    0.157173
     3  H    0.157166
     4  H    0.157161
     5  H    0.157161
 Sum of Mulliken charges =   0.00000
 Mulliken charges with hydrogens summed into heavy atoms:
               1
     1  C    0.000000
 Electronic spatial extent (au):  <R**2>=             35.4368
 Charge=              0.0000 electrons
 Dipole moment (field-independent basis, Debye):
    X=             -0.0000    Y=             -0.0000    Z=              0.0000  Tot=              0.0000
 Quadrupole moment (field-independent basis, Debye-Ang):
   XX=             -8.2483   YY=             -8.2484   ZZ=             -8.2487
   XY=              0.0000   XZ=             -0.0000   YZ=              0.0001
 Traceless Quadrupole moment (field-independent basis, Debye-Ang):
   XX=              0.0002   YY=              0.0000   ZZ=             -0.0002
   XY=              0.0000   XZ=             -0.0000   YZ=              0.0001
 Octapole moment (field-independent basis, Debye-Ang**2):
  XXX=             -0.0052  YYY=              0.1155  ZZZ=              0.0077  XYY=              0.0350
  XXY=             -0.0372  XXZ=             -0.6128  XZZ=             -0.0297  YZZ=             -0.0783
  YYZ=              0.6052  XYZ=              0.2625
 Hexadecapole moment (field-independent basis, Debye-Ang**3):
 XXXX=            -15.1656 YYYY=            -15.1594 ZZZZ=            -15.7148 XXXY=             -0.2407
 XXXZ=              0.0174 YYYX=              0.2402 YYYZ=              0.0471 ZZZX=             -0.0038
 ZZZY=             -0.0828 XXYY=             -5.3570 XXZZ=             -4.8015 YYZZ=             -4.8073
 XXYZ=              0.0359 YYXZ=             -0.0136 ZZXY=              0.0005
 N-N= 1.340854449115D+01 E-N=-1.198604803419D+02  KE= 4.007663399799D+01
 No NMR shielding tensors so no spin-rotation constants.
 Leave Link  601 at Wed Oct 16 19:56:06 2019, MaxMem= 13421772800 cpu:               3.7 elap:               0.1
 (Enter /soft/gaussian/16-a.03/AVX2/g16/l701.exe)
 ... and contract with generalized density number  0.
 Compute integral first derivatives.
 Leave Link  701 at Wed Oct 16 19:56:06 2019, MaxMem= 13421772800 cpu:               4.4 elap:               0.2
 (Enter /soft/gaussian/16-a.03/AVX2/g16/l702.exe)
 L702 exits ... SP integral derivatives will be done elsewhere.
 Leave Link  702 at Wed Oct 16 19:56:07 2019, MaxMem= 13421772800 cpu:               0.9 elap:               0.1
 (Enter /soft/gaussian/16-a.03/AVX2/g16/l703.exe)
 Integral derivatives from FoFJK, PRISM(SPDF).
 Compute integral first derivatives, UseDBF=F ICtDFT=           0.
 Calling FoFJK, ICntrl=      2127 FMM=F ISym2X=0 I1Cent= 0 IOpClX= 0 NMat=1 NMatS=1 NMatT=0.
 FoFJK:  IHMeth= 1 ICntrl=    2127 DoSepK=F KAlg= 0 I1Cent=           0 FoldK=F
 IRaf=         0 NMat=       1 IRICut=       1 DoRegI=T DoRafI=F ISym2E= 0 IDoP0=0 IntGTp=1.
 FoFCou: FMM=F IPFlag=           0 FMFlag=      100000 FMFlg1=         800
         NFxFlg=           0 DoJE=F BraDBF=F KetDBF=F FulRan=T
         wScrn=  0.000000 ICntrl=      2127 IOpCl=  0 I1Cent=           0 NGrid=           0
         NMat0=    1 NMatS0=      1 NMatT0=    0 NMatD0=    1 NMtDS0=    0 NMtDT0=    0
 Symmetry not used in FoFCou.
 Leave Link  703 at Wed Oct 16 19:56:07 2019, MaxMem= 13421772800 cpu:               8.6 elap:               0.3
 (Enter /soft/gaussian/16-a.03/AVX2/g16/l716.exe)
 Dipole        =-4.41522481D-07-1.10510277D-06 1.20107828D-05
 ***** Axes restored to original set *****
 -------------------------------------------------------------------
 Center     Atomic                   Forces (Hartrees/Bohr)
 Number     Number              X              Y              Z
 -------------------------------------------------------------------
      1        6          -0.000012747   -0.000001731   -0.000024136
      2        1          -0.000001279   -0.000001754    0.000745927
      3        1           0.000685497    0.000006655   -0.000244926
      4        1          -0.000330978    0.000590947   -0.000240606
      5        1          -0.000340493   -0.000594117   -0.000236259
 -------------------------------------------------------------------
 Cartesian Forces:  Max     0.000745927 RMS     0.000376695
 Leave Link  716 at Wed Oct 16 19:56:07 2019, MaxMem= 13421772800 cpu:               1.2 elap:               0.1
 (Enter /soft/gaussian/16-a.03/AVX2/g16/l103.exe)

 GradGradGradGradGradGradGradGradGradGradGradGradGradGradGradGradGradGrad
 Berny optimization.
 FormGI is forming the generalized inverse of G from B-inverse, IUseBI=4.
 Internal  Forces:  Max     0.000745927 RMS     0.000389853
 Search for a local minimum.
 Step number   1 out of a maximum of   24
 All quantities printed in internal units (Hartrees-Bohrs-Radians)
 RMS Force = .38985D-03 SwitMx=.10000D-02 MixMth= 2
 Mixed Optimization -- En-DIIS/RFO-DIIS
 Second derivative matrix not updated -- first step.
 The second derivative matrix:
                          R1        R2        R3        R4        A1
           R1           0.34565
           R2           0.00000   0.34562
           R3           0.00000   0.00000   0.34560
           R4           0.00000   0.00000   0.00000   0.34561
           A1           0.00000   0.00000   0.00000   0.00000   0.16000
           A2           0.00000   0.00000   0.00000   0.00000   0.00000
           A3           0.00000   0.00000   0.00000   0.00000   0.00000
           A4           0.00000   0.00000   0.00000   0.00000   0.00000
           A5           0.00000   0.00000   0.00000   0.00000   0.00000
           A6           0.00000   0.00000   0.00000   0.00000   0.00000
           D1           0.00000   0.00000   0.00000   0.00000   0.00000
           D2           0.00000   0.00000   0.00000   0.00000   0.00000
           D3           0.00000   0.00000   0.00000   0.00000   0.00000
           D4           0.00000   0.00000   0.00000   0.00000   0.00000
                          A2        A3        A4        A5        A6
           A2           0.16000
           A3           0.00000   0.16000
           A4           0.00000   0.00000   0.16000
           A5           0.00000   0.00000   0.00000   0.16000
           A6           0.00000   0.00000   0.00000   0.00000   0.16000
           D1           0.00000   0.00000   0.00000   0.00000   0.00000
           D2           0.00000   0.00000   0.00000   0.00000   0.00000
           D3           0.00000   0.00000   0.00000   0.00000   0.00000
           D4           0.00000   0.00000   0.00000   0.00000   0.00000
                          D1        D2        D3        D4
           D1           0.00230
           D2           0.00000   0.00230
           D3           0.00000   0.00000   0.00230
           D4           0.00000   0.00000   0.00000   0.00230
 ITU=  0
     Eigenvalues ---    0.05082   0.05716   0.08640   0.16000   0.16000
     Eigenvalues ---    0.34560   0.34561   0.34562   0.34565
 RFO step:  Lambda=-6.15749568D-06 EMin= 5.08244898D-02
 Linear search not attempted -- first point.
 Iteration  1 RMS(Cart)=  0.00112828 RMS(Int)=  0.00000003
 Iteration  2 RMS(Cart)=  0.00000003 RMS(Int)=  0.00000000
 ITry= 1 IFail=0 DXMaxC= 2.14D-03 DCOld= 1.00D+10 DXMaxT= 3.00D-01 DXLimC= 3.00D+00 Rises=F
 Variable       Old X    -DE/DX   Delta X   Delta X   Delta X     New X
                                 (Linear)    (Quad)   (Total)
    R1        2.06388   0.00075   0.00000   0.00216   0.00216   2.06603
    R2        2.06393   0.00073   0.00000   0.00211   0.00211   2.06603
    R3        2.06396   0.00072   0.00000   0.00208   0.00208   2.06603
    R4        2.06394   0.00072   0.00000   0.00210   0.00210   2.06604
    A1        1.91063   0.00000   0.00000   0.00001   0.00001   1.91064
    A2        1.91063  -0.00000   0.00000   0.00000   0.00000   1.91064
    A3        1.91066  -0.00001   0.00000  -0.00003  -0.00003   1.91064
    A4        1.91072  -0.00001   0.00000  -0.00007  -0.00007   1.91064
    A5        1.91060   0.00000   0.00000   0.00003   0.00003   1.91062
    A6        1.91056   0.00001   0.00000   0.00006   0.00006   1.91061
    D1        2.09445  -0.00000   0.00000  -0.00003  -0.00003   2.09441
    D2       -2.09439  -0.00000   0.00000  -0.00001  -0.00001  -2.09440
    D3        2.09437   0.00000   0.00000   0.00003   0.00003   2.09439
    D4       -2.09443   0.00000   0.00000   0.00004   0.00004  -2.09439
         Item               Value     Threshold  Converged?
 Maximum Force            0.000746     0.000015     NO 
 RMS     Force            0.000390     0.000010     NO 
 Maximum Displacement     0.002140     0.000060     NO 
 RMS     Displacement     0.001128     0.000040     NO 
 Predicted change in Energy=-3.078748D-06
 Lowest energy point so far.  Saving SCF results.
 GradGradGradGradGradGradGradGradGradGradGradGradGradGradGradGradGradGrad

 Leave Link  103 at Wed Oct 16 19:56:07 2019, MaxMem= 13421772800 cpu:               0.7 elap:               0.0
 (Enter /soft/gaussian/16-a.03/AVX2/g16/l202.exe)
                          Input orientation:                          
 ---------------------------------------------------------------------
 Center     Atomic      Atomic             Coordinates (Angstroms)
 Number     Number       Type             X           Y           Z
 ---------------------------------------------------------------------
      1          6           0       -0.000011   -0.000007   -0.000010
      2          1           0       -0.000012   -0.000011    1.093288
      3          1           0        1.030757    0.000030   -0.364449
      4          1           0       -0.515446    0.892638   -0.364444
      5          1           0       -0.515363   -0.892701   -0.364452
 ---------------------------------------------------------------------
                    Distance matrix (angstroms):
                    1          2          3          4          5
     1  C    0.000000
     2  H    1.093298   0.000000
     3  H    1.093298   1.785352   0.000000
     4  H    1.093298   1.785351   1.785355   0.000000
     5  H    1.093301   1.785354   1.785344   1.785339   0.000000
 Stoichiometry    CH4
 Framework group  C1[X(CH4)]
 Deg. of freedom     9
 Full point group                 C1      NOp   1
 RotChk:  IX=3 Diff= 1.27D+00
 Largest Abelian subgroup         C1      NOp   1
 Largest concise Abelian subgroup C1      NOp   1
                         Standard orientation:                         
 ---------------------------------------------------------------------
 Center     Atomic      Atomic             Coordinates (Angstroms)
 Number     Number       Type             X           Y           Z
 ---------------------------------------------------------------------
      1          6           0        0.000003    0.000000   -0.000002
      2          1           0        0.902119    0.568405    0.241664
      3          1           0        0.281117   -0.954915   -0.452120
      4          1           0       -0.612397    0.570153   -0.703702
      5          1           0       -0.570854   -0.183644    0.914167
 ---------------------------------------------------------------------
 Rotational constants (GHZ):         157.3212968         157.3210977         157.3194155
 Leave Link  202 at Wed Oct 16 19:56:07 2019, MaxMem= 13421772800 cpu:               0.5 elap:               0.0
 (Enter /soft/gaussian/16-a.03/AVX2/g16/l301.exe)
 Standard basis: 6-31G(d) (6D, 7F)
 Ernie: Thresh=  0.10000D-02 Tol=  0.10000D-05 Strict=F.
 There are    23 symmetry adapted cartesian basis functions of A   symmetry.
 There are    23 symmetry adapted basis functions of A   symmetry.
    23 basis functions,    44 primitive gaussians,    23 cartesian basis functions
     5 alpha electrons        5 beta electrons
       nuclear repulsion energy        13.3948511209 Hartrees.
 IExCor=  402 DFT=T Ex+Corr=B3LYP ExCW=0 ScaHFX=  0.200000
 ScaDFX=  0.800000  0.720000  1.000000  0.810000 ScalE2=  1.000000  1.000000
 IRadAn=      5 IRanWt=     -1 IRanGd=            0 ICorTp=0 IEmpDi=  4
 NAtoms=    5 NActive=    5 NUniq=    5 SFac= 1.00D+00 NAtFMM=   60 NAOKFM=F Big=F
 Integral buffers will be    131072 words long.
 Raffenetti 2 integral format.
 Two-electron integral symmetry is turned on.
 Leave Link  301 at Wed Oct 16 19:56:08 2019, MaxMem= 13421772800 cpu:               1.8 elap:               0.1
 (Enter /soft/gaussian/16-a.03/AVX2/g16/l302.exe)
 NPDir=0 NMtPBC=     1 NCelOv=     1 NCel=       1 NClECP=     1 NCelD=      1
         NCelK=      1 NCelE2=     1 NClLst=     1 CellRange=     0.0.
 One-electron integrals computed using PRISM.
 One-electron integral symmetry used in STVInt
 NBasis=    23 RedAO= T EigKep=  1.80D-02  NBF=    23
 NBsUse=    23 1.00D-06 EigRej= -1.00D+00 NBFU=    23
 Precomputing XC quadrature grid using
 IXCGrd= 4 IRadAn=           5 IRanWt=          -1 IRanGd=           0 AccXCQ= 0.00D+00.
 Generated NRdTot=       0 NPtTot=           0 NUsed=           0 NTot=          32
 NSgBfM=    23    23    23    23    23 MxSgAt=     5 MxSgA2=     5.
 Leave Link  302 at Wed Oct 16 19:56:08 2019, MaxMem= 13421772800 cpu:               4.2 elap:               0.1
 (Enter /soft/gaussian/16-a.03/AVX2/g16/l303.exe)
 DipDrv:  MaxL=1.
 Leave Link  303 at Wed Oct 16 19:56:08 2019, MaxMem= 13421772800 cpu:               0.9 elap:               0.0
 (Enter /soft/gaussian/16-a.03/AVX2/g16/l401.exe)
 Initial guess from the checkpoint file:  "/scratch/Gau-143095.chk"
 B after Tr=     0.000000   -0.000000    0.000000
         Rot=    0.894338    0.170075   -0.042199    0.411648 Ang=  53.15 deg.
 Guess basis will be translated and rotated to current coordinates.
 JPrj=2 DoOrth=T DoCkMO=T.
 Leave Link  401 at Wed Oct 16 19:56:08 2019, MaxMem= 13421772800 cpu:               2.6 elap:               0.1
 (Enter /soft/gaussian/16-a.03/AVX2/g16/l502.exe)
 Keep R1 ints in memory in canonical form, NReq=31068512.
 FoFCou: FMM=F IPFlag=           0 FMFlag=           0 FMFlg1=           0
         NFxFlg=           0 DoJE=F BraDBF=F KetDBF=F FulRan=T
         wScrn=  0.000000 ICntrl=       600 IOpCl=  0 I1Cent=           0 NGrid=           0
         NMat0=    1 NMatS0=    276 NMatT0=    0 NMatD0=    1 NMtDS0=    0 NMtDT0=    0
 Symmetry not used in FoFCou.
 Two-electron integral symmetry not used.
 Closed shell SCF:
 Using DIIS extrapolation, IDIIS=  1040.
 NGot= 13421772800 LenX= 13421732188 LenY= 13421731218
 Requested convergence on RMS density matrix=1.00D-08 within 128 cycles.
 Requested convergence on MAX density matrix=1.00D-06.
 Requested convergence on             energy=1.00D-06.
 No special actions if energy rises.

 Cycle   1  Pass 1  IDiag  1:
 E= -40.5183826413072    
 DIIS: error= 1.68D-04 at cycle   1 NSaved=   1.
 NSaved= 1 IEnMin= 1 EnMin= -40.5183826413072     IErMin= 1 ErrMin= 1.68D-04
 ErrMax= 1.68D-04  0.00D+00 EMaxC= 1.00D-01 BMatC= 5.41D-07 BMatP= 5.41D-07
 IDIUse=3 WtCom= 9.98D-01 WtEn= 1.68D-03
 Coeff-Com:  0.100D+01
 Coeff-En:   0.100D+01
 Coeff:      0.100D+01
 Gap=     2.232 Goal=   None    Shift=    0.000
 RMSDP=5.10D-05 MaxDP=3.75D-04              OVMax= 4.41D-04

 Cycle   2  Pass 1  IDiag  1:
 E= -40.5183827581870     Delta-E=       -0.000000116880 Rises=F Damp=F
 DIIS: error= 1.77D-04 at cycle   2 NSaved=   2.
 NSaved= 2 IEnMin= 2 EnMin= -40.5183827581870     IErMin= 1 ErrMin= 1.68D-04
 ErrMax= 1.77D-04  0.00D+00 EMaxC= 1.00D-01 BMatC= 5.39D-07 BMatP= 5.41D-07
 IDIUse=3 WtCom= 9.98D-01 WtEn= 1.77D-03
 Coeff-Com:  0.499D+00 0.501D+00
 Coeff-En:   0.443D+00 0.557D+00
 Coeff:      0.499D+00 0.501D+00
 Gap=     0.507 Goal=   None    Shift=    0.000
 RMSDP=2.70D-05 MaxDP=2.01D-04 DE=-1.17D-07 OVMax= 2.35D-04

 Cycle   3  Pass 1  IDiag  1:
 E= -40.5183833043504     Delta-E=       -0.000000546163 Rises=F Damp=F
 DIIS: error= 1.49D-05 at cycle   3 NSaved=   3.
 NSaved= 3 IEnMin= 3 EnMin= -40.5183833043504     IErMin= 3 ErrMin= 1.49D-05
 ErrMax= 1.49D-05  0.00D+00 EMaxC= 1.00D-01 BMatC= 4.24D-09 BMatP= 5.39D-07
 IDIUse=1 WtCom= 1.00D+00 WtEn= 0.00D+00
 Coeff-Com:  0.119D-01 0.873D-01 0.901D+00
 Coeff:      0.119D-01 0.873D-01 0.901D+00
 Gap=     0.507 Goal=   None    Shift=    0.000
 RMSDP=1.85D-06 MaxDP=1.71D-05 DE=-5.46D-07 OVMax= 1.88D-05

 Cycle   4  Pass 1  IDiag  1:
 E= -40.5183833084081     Delta-E=       -0.000000004058 Rises=F Damp=F
 DIIS: error= 4.93D-07 at cycle   4 NSaved=   4.
 NSaved= 4 IEnMin= 4 EnMin= -40.5183833084081     IErMin= 4 ErrMin= 4.93D-07
 ErrMax= 4.93D-07  0.00D+00 EMaxC= 1.00D-01 BMatC= 3.63D-12 BMatP= 4.24D-09
 IDIUse=1 WtCom= 1.00D+00 WtEn= 0.00D+00
 Coeff-Com: -0.187D-02 0.134D-02 0.725D-02 0.993D+00
 Coeff:     -0.187D-02 0.134D-02 0.725D-02 0.993D+00
 Gap=     0.507 Goal=   None    Shift=    0.000
 RMSDP=9.32D-08 MaxDP=6.09D-07 DE=-4.06D-09 OVMax= 8.23D-07

 Cycle   5  Pass 1  IDiag  1:
 E= -40.5183833084128     Delta-E=       -0.000000000005 Rises=F Damp=F
 DIIS: error= 3.08D-08 at cycle   5 NSaved=   5.
 NSaved= 5 IEnMin= 5 EnMin= -40.5183833084128     IErMin= 5 ErrMin= 3.08D-08
 ErrMax= 3.08D-08  0.00D+00 EMaxC= 1.00D-01 BMatC= 2.37D-14 BMatP= 3.63D-12
 IDIUse=1 WtCom= 1.00D+00 WtEn= 0.00D+00
 Coeff-Com: -0.193D-03-0.827D-04 0.745D-04 0.956D-01 0.905D+00
 Coeff:     -0.193D-03-0.827D-04 0.745D-04 0.956D-01 0.905D+00
 Gap=     0.507 Goal=   None    Shift=    0.000
 RMSDP=6.31D-09 MaxDP=3.65D-08 DE=-4.73D-12 OVMax= 5.63D-08

 SCF Done:  E(RB3LYP) =  -40.5183833084     A.U. after    5 cycles
            NFock=  5  Conv=0.63D-08     -V/T= 2.0112
 KE= 4.007091202172D+01 PE=-1.198291268084D+02 EE= 2.584498035741D+01
 Leave Link  502 at Wed Oct 16 19:56:08 2019, MaxMem= 13421772800 cpu:               7.3 elap:               0.2
 (Enter /soft/gaussian/16-a.03/AVX2/g16/l701.exe)
 ... and contract with generalized density number  0.
 Compute integral first derivatives.
 Leave Link  701 at Wed Oct 16 19:56:08 2019, MaxMem= 13421772800 cpu:               3.8 elap:               0.1
 (Enter /soft/gaussian/16-a.03/AVX2/g16/l702.exe)
 L702 exits ... SP integral derivatives will be done elsewhere.
 Leave Link  702 at Wed Oct 16 19:56:08 2019, MaxMem= 13421772800 cpu:               0.8 elap:               0.0
 (Enter /soft/gaussian/16-a.03/AVX2/g16/l703.exe)
 Integral derivatives from FoFJK, PRISM(SPDF).
 Compute integral first derivatives, UseDBF=F ICtDFT=           0.
 Calling FoFJK, ICntrl=      2127 FMM=F ISym2X=0 I1Cent= 0 IOpClX= 0 NMat=1 NMatS=1 NMatT=0.
 FoFJK:  IHMeth= 1 ICntrl=    2127 DoSepK=F KAlg= 0 I1Cent=           0 FoldK=F
 IRaf=         0 NMat=       1 IRICut=       1 DoRegI=T DoRafI=F ISym2E= 0 IDoP0=0 IntGTp=1.
 FoFCou: FMM=F IPFlag=           0 FMFlag=      100000 FMFlg1=         800
         NFxFlg=           0 DoJE=F BraDBF=F KetDBF=F FulRan=T
         wScrn=  0.000000 ICntrl=      2127 IOpCl=  0 I1Cent=           0 NGrid=           0
         NMat0=    1 NMatS0=      1 NMatT0=    0 NMatD0=    1 NMtDS0=    0 NMtDT0=    0
 Symmetry not used in FoFCou.
 Leave Link  703 at Wed Oct 16 19:56:09 2019, MaxMem= 13421772800 cpu:               6.8 elap:               0.2
 (Enter /soft/gaussian/16-a.03/AVX2/g16/l716.exe)
 Dipole        =-2.65720372D-06-3.38872598D-07 1.07166304D-06
 ***** Axes restored to original set *****
 -------------------------------------------------------------------
 Center     Atomic                   Forces (Hartrees/Bohr)
 Number     Number              X              Y              Z
 -------------------------------------------------------------------
      1        6          -0.000002959   -0.000002286   -0.000002186
      2        1          -0.000000030   -0.000000078   -0.000023026
      3        1          -0.000021076    0.000001007    0.000008016
      4        1           0.000012126   -0.000017882    0.000008032
      5        1           0.000011939    0.000019239    0.000009165
 -------------------------------------------------------------------
 Cartesian Forces:  Max     0.000023026 RMS     0.000012073
 Leave Link  716 at Wed Oct 16 19:56:09 2019, MaxMem= 13421772800 cpu:               0.9 elap:               0.0
 (Enter /soft/gaussian/16-a.03/AVX2/g16/l103.exe)

 GradGradGradGradGradGradGradGradGradGradGradGradGradGradGradGradGradGrad
 Berny optimization.
 Using GEDIIS/GDIIS optimizer.
 FormGI is forming the generalized inverse of G from B-inverse, IUseBI=4.
 Internal  Forces:  Max     0.000024392 RMS     0.000012450
 Search for a local minimum.
 Step number   2 out of a maximum of   24
 All quantities printed in internal units (Hartrees-Bohrs-Radians)
 RMS Force = .12450D-04 SwitMx=.10000D-02 MixMth= 2
 Mixed Optimization -- En-DIIS/RFO-DIIS
 Swapping is turned off.
 Update second derivatives using D2CorX and points    1    2
 DE= -3.00D-06 DEPred=-3.08D-06 R= 9.75D-01
 TightC=F SS=  1.41D+00  RLast= 4.22D-03 DXNew= 5.0454D-01 1.2666D-02
 Trust test= 9.75D-01 RLast= 4.22D-03 DXMaxT set to 3.00D-01
 The second derivative matrix:
                          R1        R2        R3        R4        A1
           R1           0.34835
           R2           0.00265   0.34821
           R3           0.00271   0.00265   0.34830
           R4           0.00287   0.00281   0.00286   0.34864
           A1           0.00010   0.00010   0.00010   0.00010   0.16000
           A2          -0.00007  -0.00006  -0.00006  -0.00006  -0.00000
           A3          -0.00017  -0.00017  -0.00016  -0.00017  -0.00000
           A4           0.00054   0.00053   0.00052   0.00053  -0.00000
           A5          -0.00012  -0.00012  -0.00012  -0.00012   0.00000
           A6          -0.00029  -0.00029  -0.00028  -0.00028   0.00000
           D1          -0.00021  -0.00020  -0.00020  -0.00020  -0.00000
           D2          -0.00014  -0.00014  -0.00014  -0.00014  -0.00000
           D3           0.00014   0.00013   0.00013   0.00013   0.00000
           D4           0.00028   0.00027   0.00027   0.00027   0.00000
                          A2        A3        A4        A5        A6
           A2           0.16000
           A3           0.00000   0.16000
           A4           0.00000  -0.00000   0.15999
           A5          -0.00000  -0.00000   0.00000   0.16000
           A6          -0.00000   0.00000   0.00001  -0.00000   0.15999
           D1          -0.00000   0.00000   0.00000  -0.00000  -0.00000
           D2          -0.00000   0.00000   0.00000  -0.00000  -0.00000
           D3           0.00000  -0.00000  -0.00000   0.00000   0.00000
           D4           0.00000  -0.00000  -0.00000   0.00000   0.00000
                          D1        D2        D3        D4
           D1           0.00230
           D2           0.00000   0.00230
           D3          -0.00000  -0.00000   0.00230
           D4          -0.00000  -0.00000   0.00000   0.00230
 ITU=  1  0
     Eigenvalues ---    0.05082   0.05715   0.08640   0.15999   0.16000
     Eigenvalues ---    0.34560   0.34560   0.34564   0.35666
 En-DIIS/RFO-DIIS/Sim-DIIS IScMMF=       -3 using points:     2    1
 RFO step:  Lambda= 0.00000000D+00.
 NNeg= 0 NGDIIS= 2 SimSw=  2.50D-03 Rises=F DC= -3.00D-06 SmlDif=  1.00D-05
 NRisDI= 0 DoIntr=F SqrtH=F CThrHd= 10.0 CDAdj=  3.0
 RMS Error=  0.3542032077D-04 NUsed= 2 OKEnD=F EnDIS=F
 InvSVX:  RCond= 2.01D-05 Info=           0 Equed=N FErr=  9.22D-16 BErr=  1.03D-16
 DidBck=F Rises=F RFO-DIIS coefs:    0.96927    0.03073
 Iteration  1 RMS(Cart)=  0.00003520 RMS(Int)=  0.00000000
 Iteration  2 RMS(Cart)=  0.00000000 RMS(Int)=  0.00000000
 ITry= 1 IFail=0 DXMaxC= 6.95D-05 DCOld= 1.00D+10 DXMaxT= 3.00D-01 DXLimC= 3.00D+00 Rises=F
 Variable       Old X    -DE/DX   Delta X   Delta X   Delta X     New X
                                 (Linear)    (Quad)   (Total)
    R1        2.06603  -0.00002  -0.00007   0.00000  -0.00006   2.06597
    R2        2.06603  -0.00002  -0.00006   0.00000  -0.00006   2.06597
    R3        2.06603  -0.00002  -0.00006  -0.00000  -0.00006   2.06597
    R4        2.06604  -0.00002  -0.00006  -0.00000  -0.00007   2.06597
    A1        1.91064   0.00000  -0.00000  -0.00000  -0.00001   1.91064
    A2        1.91064  -0.00000  -0.00000  -0.00000  -0.00000   1.91063
    A3        1.91064  -0.00000   0.00000  -0.00001  -0.00000   1.91063
    A4        1.91064  -0.00000   0.00000  -0.00001  -0.00001   1.91064
    A5        1.91062   0.00000  -0.00000   0.00001   0.00001   1.91063
    A6        1.91061   0.00000  -0.00000   0.00002   0.00001   1.91063
    D1        2.09441  -0.00000   0.00000  -0.00001  -0.00001   2.09440
    D2       -2.09440   0.00000   0.00000   0.00001   0.00001  -2.09440
    D3        2.09439   0.00000  -0.00000   0.00000   0.00000   2.09439
    D4       -2.09439  -0.00000  -0.00000  -0.00000  -0.00000  -2.09439
         Item               Value     Threshold  Converged?
 Maximum Force            0.000024     0.000015     NO 
 RMS     Force            0.000012     0.000010     NO 
 Maximum Displacement     0.000070     0.000060     NO 
 RMS     Displacement     0.000035     0.000040     YES
 Predicted change in Energy=-3.060371D-09
 Lowest energy point so far.  Saving SCF results.
 GradGradGradGradGradGradGradGradGradGradGradGradGradGradGradGradGradGrad

 Leave Link  103 at Wed Oct 16 19:56:09 2019, MaxMem= 13421772800 cpu:               0.6 elap:               0.0
 (Enter /soft/gaussian/16-a.03/AVX2/g16/l202.exe)
                          Input orientation:                          
 ---------------------------------------------------------------------
 Center     Atomic      Atomic             Coordinates (Angstroms)
 Number     Number       Type             X           Y           Z
 ---------------------------------------------------------------------
      1          6           0       -0.000014   -0.000009   -0.000012
      2          1           0       -0.000013   -0.000013    1.093252
      3          1           0        1.030724    0.000033   -0.364437
      4          1           0       -0.515425    0.892614   -0.364432
      5          1           0       -0.515346   -0.892677   -0.364437
 ---------------------------------------------------------------------
                    Distance matrix (angstroms):
                    1          2          3          4          5
     1  C    0.000000
     2  H    1.093264   0.000000
     3  H    1.093264   1.785294   0.000000
     4  H    1.093264   1.785294   1.785295   0.000000
     5  H    1.093265   1.785294   1.785291   1.785291   0.000000
 Stoichiometry    CH4
 Framework group  C1[X(CH4)]
 Deg. of freedom     9
 Full point group                 C1      NOp   1
 RotChk:  IX=0 Diff= 1.67D+00
 Largest Abelian subgroup         C1      NOp   1
 Largest concise Abelian subgroup C1      NOp   1
                         Standard orientation:                         
 ---------------------------------------------------------------------
 Center     Atomic      Atomic             Coordinates (Angstroms)
 Number     Number       Type             X           Y           Z
 ---------------------------------------------------------------------
      1          6           0       -0.000000    0.000001   -0.000001
      2          1           0       -0.235591    1.052225    0.180404
      3          1           0        0.935631   -0.073002   -0.560796
      4          1           0       -0.807023   -0.460564   -0.576040
      5          1           0        0.106983   -0.518663    0.956436
 ---------------------------------------------------------------------
 Rotational constants (GHZ):         157.3306932         157.3306501         157.3302271
 Leave Link  202 at Wed Oct 16 19:56:09 2019, MaxMem= 13421772800 cpu:               0.5 elap:               0.0
 (Enter /soft/gaussian/16-a.03/AVX2/g16/l301.exe)
 Standard basis: 6-31G(d) (6D, 7F)
 Ernie: Thresh=  0.10000D-02 Tol=  0.10000D-05 Strict=F.
 There are    23 symmetry adapted cartesian basis functions of A   symmetry.
 There are    23 symmetry adapted basis functions of A   symmetry.
    23 basis functions,    44 primitive gaussians,    23 cartesian basis functions
     5 alpha electrons        5 beta electrons
       nuclear repulsion energy        13.3952734337 Hartrees.
 IExCor=  402 DFT=T Ex+Corr=B3LYP ExCW=0 ScaHFX=  0.200000
 ScaDFX=  0.800000  0.720000  1.000000  0.810000 ScalE2=  1.000000  1.000000
 IRadAn=      5 IRanWt=     -1 IRanGd=            0 ICorTp=0 IEmpDi=  4
 NAtoms=    5 NActive=    5 NUniq=    5 SFac= 1.00D+00 NAtFMM=   60 NAOKFM=F Big=F
 Integral buffers will be    131072 words long.
 Raffenetti 2 integral format.
 Two-electron integral symmetry is turned on.
 Leave Link  301 at Wed Oct 16 19:56:09 2019, MaxMem= 13421772800 cpu:               1.7 elap:               0.1
 (Enter /soft/gaussian/16-a.03/AVX2/g16/l302.exe)
 NPDir=0 NMtPBC=     1 NCelOv=     1 NCel=       1 NClECP=     1 NCelD=      1
         NCelK=      1 NCelE2=     1 NClLst=     1 CellRange=     0.0.
 One-electron integrals computed using PRISM.
 One-electron integral symmetry used in STVInt
 NBasis=    23 RedAO= T EigKep=  1.80D-02  NBF=    23
 NBsUse=    23 1.00D-06 EigRej= -1.00D+00 NBFU=    23
 Precomputing XC quadrature grid using
 IXCGrd= 4 IRadAn=           5 IRanWt=          -1 IRanGd=           0 AccXCQ= 0.00D+00.
 Generated NRdTot=       0 NPtTot=           0 NUsed=           0 NTot=          32
 NSgBfM=    23    23    23    23    23 MxSgAt=     5 MxSgA2=     5.
 Leave Link  302 at Wed Oct 16 19:56:09 2019, MaxMem= 13421772800 cpu:               4.3 elap:               0.1
 (Enter /soft/gaussian/16-a.03/AVX2/g16/l303.exe)
 DipDrv:  MaxL=1.
 Leave Link  303 at Wed Oct 16 19:56:09 2019, MaxMem= 13421772800 cpu:               0.9 elap:               0.0
 (Enter /soft/gaussian/16-a.03/AVX2/g16/l401.exe)
 Initial guess from the checkpoint file:  "/scratch/Gau-143095.chk"
 B after Tr=     0.000000   -0.000000    0.000000
         Rot=    0.807301    0.000635   -0.072649   -0.585651 Ang=  72.33 deg.
 Guess basis will be translated and rotated to current coordinates.
 JPrj=2 DoOrth=T DoCkMO=T.
 Leave Link  401 at Wed Oct 16 19:56:09 2019, MaxMem= 13421772800 cpu:               2.6 elap:               0.1
 (Enter /soft/gaussian/16-a.03/AVX2/g16/l502.exe)
 Keep R1 ints in memory in canonical form, NReq=31068512.
 FoFCou: FMM=F IPFlag=           0 FMFlag=           0 FMFlg1=           0
         NFxFlg=           0 DoJE=F BraDBF=F KetDBF=F FulRan=T
         wScrn=  0.000000 ICntrl=       600 IOpCl=  0 I1Cent=           0 NGrid=           0
         NMat0=    1 NMatS0=    276 NMatT0=    0 NMatD0=    1 NMtDS0=    0 NMtDT0=    0
 Symmetry not used in FoFCou.
 Two-electron integral symmetry not used.
 Closed shell SCF:
 Using DIIS extrapolation, IDIIS=  1040.
 NGot= 13421772800 LenX= 13421732188 LenY= 13421731218
 Requested convergence on RMS density matrix=1.00D-08 within 128 cycles.
 Requested convergence on MAX density matrix=1.00D-06.
 Requested convergence on             energy=1.00D-06.
 No special actions if energy rises.

 Cycle   1  Pass 1  IDiag  1:
 E= -40.5183832721296    
 DIIS: error= 5.37D-06 at cycle   1 NSaved=   1.
 NSaved= 1 IEnMin= 1 EnMin= -40.5183832721296     IErMin= 1 ErrMin= 5.37D-06
 ErrMax= 5.37D-06  0.00D+00 EMaxC= 1.00D-01 BMatC= 5.20D-10 BMatP= 5.20D-10
 IDIUse=1 WtCom= 1.00D+00 WtEn= 0.00D+00
 Coeff-Com:  0.100D+01
 Coeff:      0.100D+01
 Gap=     2.235 Goal=   None    Shift=    0.000
 RMSDP=1.58D-06 MaxDP=1.21D-05              OVMax= 1.43D-05

 Cycle   2  Pass 1  IDiag  1:
 E= -40.5183832722485     Delta-E=       -0.000000000119 Rises=F Damp=F
 DIIS: error= 5.49D-06 at cycle   2 NSaved=   2.
 NSaved= 2 IEnMin= 2 EnMin= -40.5183832722485     IErMin= 1 ErrMin= 5.37D-06
 ErrMax= 5.49D-06  0.00D+00 EMaxC= 1.00D-01 BMatC= 5.13D-10 BMatP= 5.20D-10
 IDIUse=1 WtCom= 1.00D+00 WtEn= 0.00D+00
 Coeff-Com:  0.498D+00 0.502D+00
 Coeff:      0.498D+00 0.502D+00
 Gap=     0.507 Goal=   None    Shift=    0.000
 RMSDP=8.36D-07 MaxDP=6.22D-06 DE=-1.19D-10 OVMax= 7.29D-06

 Cycle   3  Pass 1  IDiag  1:
 E= -40.5183832727685     Delta-E=       -0.000000000520 Rises=F Damp=F
 DIIS: error= 4.69D-07 at cycle   3 NSaved=   3.
 NSaved= 3 IEnMin= 3 EnMin= -40.5183832727685     IErMin= 3 ErrMin= 4.69D-07
 ErrMax= 4.69D-07  0.00D+00 EMaxC= 1.00D-01 BMatC= 4.29D-12 BMatP= 5.13D-10
 IDIUse=1 WtCom= 1.00D+00 WtEn= 0.00D+00
 Coeff-Com:  0.115D-01 0.892D-01 0.899D+00
 Coeff:      0.115D-01 0.892D-01 0.899D+00
 Gap=     0.507 Goal=   None    Shift=    0.000
 RMSDP=5.94D-08 MaxDP=5.66D-07 DE=-5.20D-10 OVMax= 5.99D-07

 Cycle   4  Pass 1  IDiag  1:
 E= -40.5183832727726     Delta-E=       -0.000000000004 Rises=F Damp=F
 DIIS: error= 1.63D-08 at cycle   4 NSaved=   4.
 NSaved= 4 IEnMin= 4 EnMin= -40.5183832727726     IErMin= 4 ErrMin= 1.63D-08
 ErrMax= 1.63D-08  0.00D+00 EMaxC= 1.00D-01 BMatC= 4.54D-15 BMatP= 4.29D-12
 IDIUse=1 WtCom= 1.00D+00 WtEn= 0.00D+00
 Coeff-Com: -0.184D-02 0.241D-02 0.189D-01 0.981D+00
 Coeff:     -0.184D-02 0.241D-02 0.189D-01 0.981D+00
 Gap=     0.507 Goal=   None    Shift=    0.000
 RMSDP=3.25D-09 MaxDP=2.53D-08 DE=-4.05D-12 OVMax= 3.48D-08

 SCF Done:  E(RB3LYP) =  -40.5183832728     A.U. after    4 cycles
            NFock=  4  Conv=0.33D-08     -V/T= 2.0112
 KE= 4.007108830653D+01 PE=-1.198300939970D+02 EE= 2.584534898399D+01
 Leave Link  502 at Wed Oct 16 19:56:09 2019, MaxMem= 13421772800 cpu:               7.2 elap:               0.2
 (Enter /soft/gaussian/16-a.03/AVX2/g16/l701.exe)
 ... and contract with generalized density number  0.
 Compute integral first derivatives.
 Leave Link  701 at Wed Oct 16 19:56:09 2019, MaxMem= 13421772800 cpu:               3.8 elap:               0.1
 (Enter /soft/gaussian/16-a.03/AVX2/g16/l702.exe)
 L702 exits ... SP integral derivatives will be done elsewhere.
 Leave Link  702 at Wed Oct 16 19:56:09 2019, MaxMem= 13421772800 cpu:               0.8 elap:               0.0
 (Enter /soft/gaussian/16-a.03/AVX2/g16/l703.exe)
 Integral derivatives from FoFJK, PRISM(SPDF).
 Compute integral first derivatives, UseDBF=F ICtDFT=           0.
 Calling FoFJK, ICntrl=      2127 FMM=F ISym2X=0 I1Cent= 0 IOpClX= 0 NMat=1 NMatS=1 NMatT=0.
 FoFJK:  IHMeth= 1 ICntrl=    2127 DoSepK=F KAlg= 0 I1Cent=           0 FoldK=F
 IRaf=         0 NMat=       1 IRICut=       1 DoRegI=T DoRafI=F ISym2E= 0 IDoP0=0 IntGTp=1.
 FoFCou: FMM=F IPFlag=           0 FMFlag=      100000 FMFlg1=         800
         NFxFlg=           0 DoJE=F BraDBF=F KetDBF=F FulRan=T
         wScrn=  0.000000 ICntrl=      2127 IOpCl=  0 I1Cent=           0 NGrid=           0
         NMat0=    1 NMatS0=      1 NMatT0=    0 NMatD0=    1 NMtDS0=    0 NMtDT0=    0
 Symmetry not used in FoFCou.
 Leave Link  703 at Wed Oct 16 19:56:10 2019, MaxMem= 13421772800 cpu:               6.8 elap:               0.2
 (Enter /soft/gaussian/16-a.03/AVX2/g16/l716.exe)
 Dipole        = 9.39929462D-08-5.37390270D-07 5.68584716D-07
 ***** Axes restored to original set *****
 -------------------------------------------------------------------
 Center     Atomic                   Forces (Hartrees/Bohr)
 Number     Number              X              Y              Z
 -------------------------------------------------------------------
      1        6          -0.000000733   -0.000000611   -0.000001156
      2        1           0.000000055    0.000000151    0.000000221
      3        1           0.000000165    0.000000436    0.000000299
      4        1           0.000000369   -0.000000028    0.000000118
      5        1           0.000000144    0.000000051    0.000000519
 -------------------------------------------------------------------
 Cartesian Forces:  Max     0.000001156 RMS     0.000000453
 Leave Link  716 at Wed Oct 16 19:56:10 2019, MaxMem= 13421772800 cpu:               0.8 elap:               0.0
 (Enter /soft/gaussian/16-a.03/AVX2/g16/l103.exe)

 GradGradGradGradGradGradGradGradGradGradGradGradGradGradGradGradGradGrad
 Berny optimization.
 Using GEDIIS/GDIIS optimizer.
 FormGI is forming the generalized inverse of G from B-inverse, IUseBI=4.
 Internal  Forces:  Max     0.000000425 RMS     0.000000256
 Search for a local minimum.
 Step number   3 out of a maximum of   24
 All quantities printed in internal units (Hartrees-Bohrs-Radians)
 RMS Force = .25614D-06 SwitMx=.10000D-02 MixMth= 2
 Mixed Optimization -- En-DIIS/RFO-DIIS
 Swapping is turned off.
 Update second derivatives using D2CorX and points    1    2    3
 DE=  3.56D-08 DEPred=-3.06D-09 R=-1.16D+01
 Trust test=-1.16D+01 RLast= 1.33D-04 DXMaxT set to 1.50D-01
 The second derivative matrix:
                          R1        R2        R3        R4        A1
           R1           0.35053
           R2           0.00417   0.34911
           R3           0.00314   0.00248   0.34703
           R4           0.00321   0.00251   0.00139   0.34694
           A1          -0.00368  -0.00360  -0.00368  -0.00391   0.15987
           A2          -0.00064  -0.00063  -0.00066  -0.00070  -0.00007
           A3           0.00024   0.00021   0.00018   0.00020  -0.00012
           A4          -0.00142  -0.00142  -0.00151  -0.00164  -0.00023
           A5           0.00265   0.00260   0.00267   0.00285   0.00015
           A6           0.00286   0.00284   0.00299   0.00321   0.00039
           D1           0.00190   0.00185   0.00187   0.00200  -0.00001
           D2          -0.00050  -0.00049  -0.00049  -0.00051   0.00001
           D3          -0.00048  -0.00047  -0.00048  -0.00051  -0.00000
           D4           0.00002   0.00002   0.00001  -0.00001  -0.00001
                          A2        A3        A4        A5        A6
           A2           0.15998
           A3          -0.00001   0.16003
           A4          -0.00006  -0.00005   0.15978
           A5           0.00006   0.00008   0.00020   0.15985
           A6           0.00010   0.00007   0.00036  -0.00034   0.15941
           D1           0.00003   0.00007   0.00009  -0.00003  -0.00015
           D2          -0.00000  -0.00001  -0.00001  -0.00000   0.00002
           D3          -0.00001  -0.00002  -0.00003   0.00001   0.00005
           D4          -0.00001  -0.00001  -0.00002   0.00001   0.00003
                          D1        D2        D3        D4
           D1           0.00235
           D2          -0.00001   0.00230
           D3          -0.00001   0.00000   0.00230
           D4           0.00000  -0.00000  -0.00000   0.00230
 ITU= -1  1  0
     Eigenvalues ---    0.05075   0.05715   0.08624   0.15943   0.16002
     Eigenvalues ---    0.34481   0.34560   0.34562   0.35773
 En-DIIS/RFO-DIIS/Sim-DIIS IScMMF=       -3 using points:     3    2    1
 RFO step:  Lambda= 0.00000000D+00.
 NNeg= 0 NGDIIS= 3 SimSw=  2.50D-03 Rises=F DC=  3.56D-08 SmlDif=  1.00D-05
 NRisDI= 0 DoIntr=F SqrtH=F CThrHd= 10.0 CDAdj=  3.0
 RMS Error=  0.2418199222D-05 NUsed= 3 OKEnD=F EnDIS=F
 InvSVX:  RCond= 6.31D-11 Info=           0 Equed=N FErr=  3.02D-14 BErr=  6.71D-17
 DIIS inversion failure, remove point   3.
 InvSVX:  RCond= 4.39D-09 Info=           0 Equed=N FErr=  9.26D-16 BErr=  7.31D-17
 DIIS inversion failure, remove point   2.
 Use linear search instead of GDIIS.
 RFO step:  Lambda= 0.00000000D+00 EMin= 5.07498757D-02
 Quartic linear search produced a step of -0.97365.
 Iteration  1 RMS(Cart)=  0.00003829 RMS(Int)=  0.00000000
 Iteration  2 RMS(Cart)=  0.00000000 RMS(Int)=  0.00000000
 ITry= 1 IFail=0 DXMaxC= 8.24D-05 DCOld= 1.00D+10 DXMaxT= 1.50D-01 DXLimC= 3.00D+00 Rises=F
 Variable       Old X    -DE/DX   Delta X   Delta X   Delta X     New X
                                 (Linear)    (Quad)   (Total)
    R1        2.06597   0.00000   0.00006  -0.00000   0.00006   2.06603
    R2        2.06597   0.00000   0.00006  -0.00000   0.00006   2.06603
    R3        2.06597  -0.00000   0.00006  -0.00000   0.00006   2.06603
    R4        2.06597  -0.00000   0.00007  -0.00000   0.00007   2.06604
    A1        1.91064  -0.00000   0.00001   0.00004   0.00005   1.91068
    A2        1.91063  -0.00000   0.00000   0.00000   0.00000   1.91064
    A3        1.91063  -0.00000   0.00000  -0.00000   0.00000   1.91064
    A4        1.91064  -0.00000   0.00001   0.00001   0.00002   1.91065
    A5        1.91063   0.00000  -0.00001  -0.00001  -0.00002   1.91061
    A6        1.91063   0.00000  -0.00001  -0.00003  -0.00005   1.91058
    D1        2.09440  -0.00000   0.00001   0.00006   0.00007   2.09447
    D2       -2.09440   0.00000  -0.00001  -0.00004  -0.00005  -2.09444
    D3        2.09439  -0.00000  -0.00000  -0.00002  -0.00002   2.09437
    D4       -2.09439  -0.00000   0.00000   0.00002   0.00002  -2.09437
         Item               Value     Threshold  Converged?
 Maximum Force            0.000000     0.000015     YES
 RMS     Force            0.000000     0.000010     YES
 Maximum Displacement     0.000082     0.000060     NO 
 RMS     Displacement     0.000038     0.000040     YES
 Predicted change in Energy=-3.221061D-09
 GradGradGradGradGradGradGradGradGradGradGradGradGradGradGradGradGradGrad

 Leave Link  103 at Wed Oct 16 19:56:10 2019, MaxMem= 13421772800 cpu:               0.6 elap:               0.0
 (Enter /soft/gaussian/16-a.03/AVX2/g16/l202.exe)
                          Input orientation:                          
 ---------------------------------------------------------------------
 Center     Atomic      Atomic             Coordinates (Angstroms)
 Number     Number       Type             X           Y           Z
 ---------------------------------------------------------------------
      1          6           0       -0.000001   -0.000004   -0.000001
      2          1           0       -0.000023   -0.000012    1.093295
      3          1           0        1.030759    0.000024   -0.364462
      4          1           0       -0.515450    0.892628   -0.364445
      5          1           0       -0.515359   -0.892688   -0.364453
 ---------------------------------------------------------------------
                    Distance matrix (angstroms):
                    1          2          3          4          5
     1  C    0.000000
     2  H    1.093297   0.000000
     3  H    1.093296   1.785376   0.000000
     4  H    1.093297   1.785350   1.785358   0.000000
     5  H    1.093300   1.785350   1.785333   1.785316   0.000000
 Stoichiometry    CH4
 Framework group  C1[X(CH4)]
 Deg. of freedom     9
 Full point group                 C1      NOp   1
 RotChk:  IX=3 Diff= 1.08D+00
 Largest Abelian subgroup         C1      NOp   1
 Largest concise Abelian subgroup C1      NOp   1
                         Standard orientation:                         
 ---------------------------------------------------------------------
 Center     Atomic      Atomic             Coordinates (Angstroms)
 Number     Number       Type             X           Y           Z
 ---------------------------------------------------------------------
      1          6           0       -0.000002    0.000008   -0.000005
      2          1           0       -0.910692    0.604594    0.020388
      3          1           0        0.842653    0.620850   -0.315892
      4          1           0       -0.127295   -0.827029   -0.703642
      5          1           0        0.195346   -0.398465    0.999176
 ---------------------------------------------------------------------
 Rotational constants (GHZ):         157.3237638         157.3214224         157.3178651
 Leave Link  202 at Wed Oct 16 19:56:10 2019, MaxMem= 13421772800 cpu:               0.5 elap:               0.0
 (Enter /soft/gaussian/16-a.03/AVX2/g16/l301.exe)
 Standard basis: 6-31G(d) (6D, 7F)
 Ernie: Thresh=  0.10000D-02 Tol=  0.10000D-05 Strict=F.
 There are    23 symmetry adapted cartesian basis functions of A   symmetry.
 There are    23 symmetry adapted basis functions of A   symmetry.
    23 basis functions,    44 primitive gaussians,    23 cartesian basis functions
     5 alpha electrons        5 beta electrons
       nuclear repulsion energy        13.3948687341 Hartrees.
 IExCor=  402 DFT=T Ex+Corr=B3LYP ExCW=0 ScaHFX=  0.200000
 ScaDFX=  0.800000  0.720000  1.000000  0.810000 ScalE2=  1.000000  1.000000
 IRadAn=      5 IRanWt=     -1 IRanGd=            0 ICorTp=0 IEmpDi=  4
 NAtoms=    5 NActive=    5 NUniq=    5 SFac= 1.00D+00 NAtFMM=   60 NAOKFM=F Big=F
 Integral buffers will be    131072 words long.
 Raffenetti 2 integral format.
 Two-electron integral symmetry is turned on.
 Leave Link  301 at Wed Oct 16 19:56:10 2019, MaxMem= 13421772800 cpu:               1.8 elap:               0.1
 (Enter /soft/gaussian/16-a.03/AVX2/g16/l302.exe)
 NPDir=0 NMtPBC=     1 NCelOv=     1 NCel=       1 NClECP=     1 NCelD=      1
         NCelK=      1 NCelE2=     1 NClLst=     1 CellRange=     0.0.
 One-electron integrals computed using PRISM.
 One-electron integral symmetry used in STVInt
 NBasis=    23 RedAO= T EigKep=  1.80D-02  NBF=    23
 NBsUse=    23 1.00D-06 EigRej= -1.00D+00 NBFU=    23
 Precomputing XC quadrature grid using
 IXCGrd= 4 IRadAn=           5 IRanWt=          -1 IRanGd=           0 AccXCQ= 0.00D+00.
 Generated NRdTot=       0 NPtTot=           0 NUsed=           0 NTot=          32
 NSgBfM=    23    23    23    23    23 MxSgAt=     5 MxSgA2=     5.
 Leave Link  302 at Wed Oct 16 19:56:10 2019, MaxMem= 13421772800 cpu:               4.3 elap:               0.1
 (Enter /soft/gaussian/16-a.03/AVX2/g16/l303.exe)
 DipDrv:  MaxL=1.
 Leave Link  303 at Wed Oct 16 19:56:10 2019, MaxMem= 13421772800 cpu:               0.8 elap:               0.0
 (Enter /soft/gaussian/16-a.03/AVX2/g16/l401.exe)
 Lowest energy guess from the checkpoint file:  "/scratch/Gau-143095.chk"
 B after Tr=     0.000000   -0.000000    0.000000
         Rot=   -0.543675   -0.102303   -0.035492    0.832281 Ang=-245.87 deg.
 Guess basis will be translated and rotated to current coordinates.
 B after Tr=     0.000000   -0.000000   -0.000000
         Rot=    0.923822    0.000993    0.127536   -0.360952 Ang=  45.02 deg.
 Guess basis will be translated and rotated to current coordinates.
 CkInt1:  FT= 2.64D-02
 Max alpha theta=  0.000 degrees.
 JPrj=2 DoOrth=T DoCkMO=T.
 Leave Link  401 at Wed Oct 16 19:56:10 2019, MaxMem= 13421772800 cpu:               2.8 elap:               0.1
 (Enter /soft/gaussian/16-a.03/AVX2/g16/l502.exe)
 Keep R1 ints in memory in canonical form, NReq=31068512.
 FoFCou: FMM=F IPFlag=           0 FMFlag=           0 FMFlg1=           0
         NFxFlg=           0 DoJE=F BraDBF=F KetDBF=F FulRan=T
         wScrn=  0.000000 ICntrl=       600 IOpCl=  0 I1Cent=           0 NGrid=           0
         NMat0=    1 NMatS0=    276 NMatT0=    0 NMatD0=    1 NMtDS0=    0 NMtDT0=    0
 Symmetry not used in FoFCou.
 Two-electron integral symmetry not used.
 Closed shell SCF:
 Using DIIS extrapolation, IDIIS=  1040.
 NGot= 13421772800 LenX= 13421732188 LenY= 13421731218
 Requested convergence on RMS density matrix=1.00D-08 within 128 cycles.
 Requested convergence on MAX density matrix=1.00D-06.
 Requested convergence on             energy=1.00D-06.
 No special actions if energy rises.

 Cycle   1  Pass 1  IDiag  1:
 E= -40.5183833072290    
 DIIS: error= 1.60D-06 at cycle   1 NSaved=   1.
 NSaved= 1 IEnMin= 1 EnMin= -40.5183833072290     IErMin= 1 ErrMin= 1.60D-06
 ErrMax= 1.60D-06  0.00D+00 EMaxC= 1.00D-01 BMatC= 5.30D-11 BMatP= 5.30D-11
 IDIUse=1 WtCom= 1.00D+00 WtEn= 0.00D+00
 Coeff-Com:  0.100D+01
 Coeff:      0.100D+01
 Gap=    10.573 Goal=   None    Shift=    0.000
 RMSDP=3.45D-07 MaxDP=1.36D-06              OVMax= 2.81D-06

 Cycle   2  Pass 1  IDiag  1:
 E= -40.5183833072953     Delta-E=       -0.000000000066 Rises=F Damp=F
 DIIS: error= 3.23D-07 at cycle   2 NSaved=   2.
 NSaved= 2 IEnMin= 2 EnMin= -40.5183833072953     IErMin= 2 ErrMin= 3.23D-07
 ErrMax= 3.23D-07  0.00D+00 EMaxC= 1.00D-01 BMatC= 1.57D-12 BMatP= 5.30D-11
 IDIUse=1 WtCom= 1.00D+00 WtEn= 0.00D+00
 Coeff-Com:  0.762D-01 0.924D+00
 Coeff:      0.762D-01 0.924D+00
 Gap=     0.507 Goal=   None    Shift=    0.000
 RMSDP=7.72D-08 MaxDP=3.84D-07 DE=-6.63D-11 OVMax= 7.03D-07

 Cycle   3  Pass 1  IDiag  1:
 E= -40.5183833072969     Delta-E=       -0.000000000002 Rises=F Damp=F
 DIIS: error= 9.70D-08 at cycle   3 NSaved=   3.
 NSaved= 3 IEnMin= 3 EnMin= -40.5183833072969     IErMin= 3 ErrMin= 9.70D-08
 ErrMax= 9.70D-08  0.00D+00 EMaxC= 1.00D-01 BMatC= 2.59D-13 BMatP= 1.57D-12
 IDIUse=1 WtCom= 1.00D+00 WtEn= 0.00D+00
 Coeff-Com: -0.845D-02 0.259D+00 0.750D+00
 Coeff:     -0.845D-02 0.259D+00 0.750D+00
 Gap=     0.507 Goal=   None    Shift=    0.000
 RMSDP=2.31D-08 MaxDP=1.89D-07 DE=-1.61D-12 OVMax= 2.59D-07

 Cycle   4  Pass 1  IDiag  1:
 E= -40.5183833072971     Delta-E=       -0.000000000000 Rises=F Damp=F
 DIIS: error= 4.82D-08 at cycle   4 NSaved=   4.
 NSaved= 4 IEnMin= 4 EnMin= -40.5183833072971     IErMin= 4 ErrMin= 4.82D-08
 ErrMax= 4.82D-08  0.00D+00 EMaxC= 1.00D-01 BMatC= 4.20D-14 BMatP= 2.59D-13
 IDIUse=1 WtCom= 1.00D+00 WtEn= 0.00D+00
 Coeff-Com: -0.772D-02 0.950D-01 0.378D+00 0.535D+00
 Coeff:     -0.772D-02 0.950D-01 0.378D+00 0.535D+00
 Gap=     0.507 Goal=   None    Shift=    0.000
 RMSDP=7.17D-09 MaxDP=5.78D-08 DE=-1.71D-13 OVMax= 6.90D-08

 SCF Done:  E(RB3LYP) =  -40.5183833073     A.U. after    4 cycles
            NFock=  4  Conv=0.72D-08     -V/T= 2.0112
 KE= 4.007091921194D+01 PE=-1.198291686610D+02 EE= 2.584499740769D+01
 Leave Link  502 at Wed Oct 16 19:56:10 2019, MaxMem= 13421772800 cpu:               7.3 elap:               0.2
 (Enter /soft/gaussian/16-a.03/AVX2/g16/l701.exe)
 ... and contract with generalized density number  0.
 Compute integral first derivatives.
 Leave Link  701 at Wed Oct 16 19:56:11 2019, MaxMem= 13421772800 cpu:               3.8 elap:               0.1
 (Enter /soft/gaussian/16-a.03/AVX2/g16/l702.exe)
 L702 exits ... SP integral derivatives will be done elsewhere.
 Leave Link  702 at Wed Oct 16 19:56:11 2019, MaxMem= 13421772800 cpu:               0.8 elap:               0.0
 (Enter /soft/gaussian/16-a.03/AVX2/g16/l703.exe)
 Integral derivatives from FoFJK, PRISM(SPDF).
 Compute integral first derivatives, UseDBF=F ICtDFT=           0.
 Calling FoFJK, ICntrl=      2127 FMM=F ISym2X=0 I1Cent= 0 IOpClX= 0 NMat=1 NMatS=1 NMatT=0.
 FoFJK:  IHMeth= 1 ICntrl=    2127 DoSepK=F KAlg= 0 I1Cent=           0 FoldK=F
 IRaf=         0 NMat=       1 IRICut=       1 DoRegI=T DoRafI=F ISym2E= 0 IDoP0=0 IntGTp=1.
 FoFCou: FMM=F IPFlag=           0 FMFlag=      100000 FMFlg1=         800
         NFxFlg=           0 DoJE=F BraDBF=F KetDBF=F FulRan=T
         wScrn=  0.000000 ICntrl=      2127 IOpCl=  0 I1Cent=           0 NGrid=           0
         NMat0=    1 NMatS0=      1 NMatT0=    0 NMatD0=    1 NMtDS0=    0 NMtDT0=    0
 Symmetry not used in FoFCou.
 Leave Link  703 at Wed Oct 16 19:56:11 2019, MaxMem= 13421772800 cpu:               6.8 elap:               0.2
 (Enter /soft/gaussian/16-a.03/AVX2/g16/l716.exe)
 Dipole        = 2.46835221D-06-1.05267257D-05 5.79022476D-06
 ***** Axes restored to original set *****
 -------------------------------------------------------------------
 Center     Atomic                   Forces (Hartrees/Bohr)
 Number     Number              X              Y              Z
 -------------------------------------------------------------------
      1        6          -0.000007310   -0.000003579   -0.000005734
      2        1           0.000002508    0.000000264   -0.000022770
      3        1          -0.000020000    0.000002045    0.000010356
      4        1           0.000013258   -0.000015488    0.000008264
      5        1           0.000011545    0.000016757    0.000009885
 -------------------------------------------------------------------
 Cartesian Forces:  Max     0.000022770 RMS     0.000011920
 Leave Link  716 at Wed Oct 16 19:56:11 2019, MaxMem= 13421772800 cpu:               0.9 elap:               0.0
 (Enter /soft/gaussian/16-a.03/AVX2/g16/l103.exe)

 GradGradGradGradGradGradGradGradGradGradGradGradGradGradGradGradGradGrad
 Berny optimization.
 Using GEDIIS/GDIIS optimizer.
 FormGI is forming the generalized inverse of G from B-inverse, IUseBI=4.
 Internal  Forces:  Max     0.000022770 RMS     0.000012055
 Search for a local minimum.
 Step number   4 out of a maximum of   24
 All quantities printed in internal units (Hartrees-Bohrs-Radians)
 RMS Force = .12055D-04 SwitMx=.10000D-02 MixMth= 2
 Mixed Optimization -- En-DIIS/RFO-DIIS
 Swapping is turned off.
 Update second derivatives using D2CorX and points    1    2    3    4
 DE= -3.45D-08 DEPred=-3.22D-09 R= 1.07D+01
 Trust test= 1.07D+01 RLast= 1.69D-04 DXMaxT set to 1.50D-01
 The second derivative matrix:
                          R1        R2        R3        R4        A1
           R1           0.35022
           R2           0.00392   0.34890
           R3           0.00204   0.00141   0.34837
           R4           0.00165   0.00094   0.00397   0.35171
           A1           0.00432   0.00431   0.00067  -0.00120   0.08003
           A2           0.00007   0.00006  -0.00118  -0.00186  -0.00263
           A3           0.00019   0.00015  -0.00126  -0.00199   0.00686
           A4           0.00103   0.00097  -0.00275  -0.00478  -0.01172
           A5          -0.00076  -0.00075   0.00252   0.00436   0.02515
           A6          -0.00485  -0.00474   0.00199   0.00548   0.06231
           D1           0.00413   0.00409  -0.00382  -0.00788   0.00733
           D2          -0.00162  -0.00161   0.00212   0.00408  -0.00306
           D3          -0.00103  -0.00102   0.00090   0.00187  -0.00159
           D4           0.00059   0.00058  -0.00122  -0.00221   0.00148
                          A2        A3        A4        A5        A6
           A2           0.16021
           A3           0.00070   0.16022
           A4           0.00043   0.00234   0.16053
           A5           0.00029  -0.00301   0.00222   0.15306
           A6           0.00099  -0.00711   0.00619  -0.01773   0.11534
           D1           0.00283   0.00347   0.00841  -0.00716  -0.01487
           D2          -0.00128  -0.00160  -0.00380   0.00319   0.00656
           D3          -0.00068  -0.00087  -0.00203   0.00168   0.00348
           D4           0.00060   0.00073   0.00177  -0.00151  -0.00308
                          D1        D2        D3        D4
           D1           0.02146
           D2          -0.00894   0.00647
           D3          -0.00466   0.00218   0.00344
           D4           0.00428  -0.00200  -0.00104   0.00326
 ITU=  0 -1  1  0
     Eigenvalues ---    0.03942   0.05717   0.08330   0.15685   0.16007
     Eigenvalues ---    0.34554   0.34561   0.35216   0.35704
 En-DIIS/RFO-DIIS/Sim-DIIS IScMMF=       -3 using points:     4    3    2    1
 RFO step:  Lambda=-6.04443003D-09.
 NNeg= 0 NGDIIS= 4 SimSw=  2.50D-03 Rises=F DC= -3.45D-08 SmlDif=  1.00D-05
 NRisDI= 0 DoIntr=F SqrtH=F CThrHd= 10.0 CDAdj=  3.0
 RMS Error=  0.4727784470D-04 NUsed= 4 OKEnD=F EnDIS=F
 InvSVX:  RCond= 1.50D-11 Info=           0 Equed=N FErr=  7.07D-14 BErr=  5.49D-17
 DIIS inversion failure, remove point   4.
 InvSVX:  RCond= 8.72D-10 Info=           0 Equed=N FErr=  1.47D-15 BErr=  5.58D-17
 DIIS inversion failure, remove point   3.
 InvSVX:  RCond= 7.11D-09 Info=           0 Equed=N FErr=  9.81D-16 BErr=  0.00D+00
 DIIS inversion failure, remove point   2.
 Use linear search instead of GDIIS.
 RFO step:  Lambda= 0.00000000D+00 EMin= 3.94159068D-02
 Quartic linear search produced a step of -0.02763.
 Iteration  1 RMS(Cart)=  0.00006961 RMS(Int)=  0.00000001
 Iteration  2 RMS(Cart)=  0.00000001 RMS(Int)=  0.00000000
 ITry= 1 IFail=0 DXMaxC= 1.30D-04 DCOld= 1.00D+10 DXMaxT= 1.50D-01 DXLimC= 3.00D+00 Rises=F
 Variable       Old X    -DE/DX   Delta X   Delta X   Delta X     New X
                                 (Linear)    (Quad)   (Total)
    R1        2.06603  -0.00002  -0.00000  -0.00003  -0.00004   2.06600
    R2        2.06603  -0.00002  -0.00000  -0.00003  -0.00004   2.06599
    R3        2.06603  -0.00002  -0.00000  -0.00002  -0.00002   2.06601
    R4        2.06604  -0.00002  -0.00000  -0.00001  -0.00001   2.06603
    A1        1.91068  -0.00000  -0.00000   0.00022   0.00022   1.91090
    A2        1.91064  -0.00000  -0.00000  -0.00001  -0.00001   1.91063
    A3        1.91064  -0.00000  -0.00000  -0.00002  -0.00002   1.91061
    A4        1.91065  -0.00000  -0.00000  -0.00001  -0.00001   1.91065
    A5        1.91061   0.00000   0.00000  -0.00004  -0.00004   1.91057
    A6        1.91058   0.00000   0.00000  -0.00014  -0.00014   1.91044
    D1        2.09447  -0.00000  -0.00000   0.00026   0.00026   2.09473
    D2       -2.09444   0.00000   0.00000  -0.00023  -0.00023  -2.09467
    D3        2.09437   0.00000   0.00000  -0.00011  -0.00011   2.09426
    D4       -2.09437  -0.00000  -0.00000   0.00012   0.00012  -2.09426
         Item               Value     Threshold  Converged?
 Maximum Force            0.000023     0.000015     NO 
 RMS     Force            0.000012     0.000010     NO 
 Maximum Displacement     0.000130     0.000060     NO 
 RMS     Displacement     0.000070     0.000040     NO 
 Predicted change in Energy=-4.733369D-09
 GradGradGradGradGradGradGradGradGradGradGradGradGradGradGradGradGradGrad

 Leave Link  103 at Wed Oct 16 19:56:11 2019, MaxMem= 13421772800 cpu:               0.6 elap:               0.0
 (Enter /soft/gaussian/16-a.03/AVX2/g16/l202.exe)
                          Input orientation:                          
 ---------------------------------------------------------------------
 Center     Atomic      Atomic             Coordinates (Angstroms)
 Number     Number       Type             X           Y           Z
 ---------------------------------------------------------------------
      1          6           0        0.000052    0.000003    0.000038
      2          1           0       -0.000088   -0.000013    1.093315
      3          1           0        1.030753    0.000016   -0.364531
      4          1           0       -0.515447    0.892580   -0.364440
      5          1           0       -0.515345   -0.892637   -0.364449
 ---------------------------------------------------------------------
                    Distance matrix (angstroms):
                    1          2          3          4          5
     1  C    0.000000
     2  H    1.093277   0.000000
     3  H    1.093277   1.785483   0.000000
     4  H    1.093287   1.785320   1.785331   0.000000
     5  H    1.093294   1.785314   1.785287   1.785217   0.000000
 Stoichiometry    CH4
 Framework group  C1[X(CH4)]
 Deg. of freedom     9
 Full point group                 C1      NOp   1
 RotChk:  IX=3 Diff= 1.69D-01
 Largest Abelian subgroup         C1      NOp   1
 Largest concise Abelian subgroup C1      NOp   1
                         Standard orientation:                         
 ---------------------------------------------------------------------
[...]
 
      X                                                                      X                                                       
      X                                                                      X                                                       
      X                                                                      X                                                       
      X                                                                      X                                                       
      X                                                                      X                                                       
      X                                                                      X                                                       
      X                                                                      X                                                       
      X                                                                      X                                                       
      X                                                                      X                                                       
      X                                                                      X                                                       
      X                                                                      X                                                       
      X                                                                      X                                                       
      X                                                                                                                              
      X                                                                                                                              
      X                                                                                                                              
      X                                                                                                                              
      X                                                                                                                              
      X                                                                                                                              
      X                                                                                                                              
      X                                                                                                                              
 
 ***** Axes restored to original set *****
 -------------------------------------------------------------------
 Center     Atomic                   Forces (Hartrees/Bohr)
 Number     Number              X              Y              Z
 -------------------------------------------------------------------
      1        6           0.000000223   -0.000000760   -0.000000071
      2        1           0.000000002   -0.000000010    0.000000001
      3        1          -0.000000147    0.000000251   -0.000000076
      4        1          -0.000000016    0.000000400    0.000000069
      5        1          -0.000000062    0.000000119    0.000000077
 -------------------------------------------------------------------
 Cartesian Forces:  Max     0.000000760 RMS     0.000000247
 Force constants in Cartesian coordinates: 
                1             2             3             4             5 
      1  0.558929D+00
      2  0.400500D-05  0.558919D+00
      3 -0.456524D-05  0.574752D-05  0.558925D+00
      4 -0.482183D-01  0.000000D+00  0.000000D+00  0.467368D-01
      5  0.000000D+00 -0.482183D-01  0.000000D+00  0.000000D+00  0.467369D-01
      6  0.000000D+00  0.000000D+00 -0.322753D+00  0.000000D+00  0.000000D+00
      7 -0.292256D+00 -0.114363D-04  0.862801D-01  0.265229D-02  0.000000D+00
      8 -0.111631D-04 -0.482206D-01  0.269956D-05  0.000000D+00 -0.166464D-02
      9  0.862800D-01  0.233491D-05 -0.787283D-01  0.326987D-01  0.129584D-05
     10 -0.109232D+00  0.105673D+00 -0.431406D-01 -0.585047D-03 -0.186931D-02
     11  0.105672D+00 -0.231226D+00  0.747159D-01 -0.186896D-02  0.157271D-02
     12 -0.431405D-01  0.747163D-01 -0.787180D-01 -0.163508D-01  0.283174D-01
     13 -0.109223D+00 -0.105665D+00 -0.431359D-01 -0.585683D-03  0.186885D-02
     14 -0.105666D+00 -0.231253D+00 -0.747244D-01  0.186926D-02  0.157330D-02
     15 -0.431357D-01 -0.747242D-01 -0.787257D-01 -0.163481D-01 -0.283188D-01
                6             7             8             9            10 
      6  0.348781D+00
      7 -0.657464D-03  0.315227D+00
      8  0.000000D+00  0.122035D-04  0.467387D-01
      9 -0.867607D-02 -0.949256D-01 -0.281424D-05  0.803034D-01
     10  0.328849D-03 -0.128130D-01  0.260746D-01 -0.120268D-01  0.113865D+00
     11 -0.569305D-03 -0.116054D-02  0.157425D-02 -0.157291D-02 -0.116262D+00
     12 -0.867599D-02  0.465206D-02 -0.112015D-01  0.355056D-02  0.474638D-01
     13  0.328658D-03 -0.128104D-01 -0.260756D-01 -0.120263D-01  0.876533D-02
     14  0.569423D-03  0.115950D-02  0.157224D-02  0.157209D-02 -0.136165D-01
     15 -0.867606D-02  0.465086D-02  0.112016D-01  0.355033D-02  0.737480D-02
               11            12            13            14            15 
     11  0.248084D+00
     12 -0.822034D-01  0.802928D-01
     13  0.136188D-01  0.737547D-02  0.113853D+00
     14 -0.200045D-01 -0.962890D-02  0.116253D+00  0.248112D+00
     15  0.962971D-02  0.355057D-02  0.474581D-01  0.822118D-01  0.803008D-01
 FormGI is forming the generalized inverse of G from B-inverse, IUseBI=4.
 Force constants in internal coordinates: 
                1             2             3             4             5 
      1  0.348781D+00
      2  0.227217D-02  0.348789D+00
      3  0.227215D-02  0.227207D-02  0.348775D+00
      4  0.227216D-02  0.227187D-02  0.227209D-02  0.348788D+00
      5  0.191355D-02  0.191342D-02 -0.120144D-02 -0.262514D-02  0.204315D-01
      6  0.299786D-02 -0.773947D-03  0.333712D-02 -0.556161D-02 -0.905003D-02
      7  0.585959D-02 -0.470248D-02 -0.520583D-02  0.404989D-02 -0.135343D-01
      8 -0.773931D-03  0.299816D-02  0.333681D-02 -0.556130D-02 -0.904997D-02
      9 -0.470265D-02  0.585930D-02 -0.520547D-02  0.404884D-02 -0.135353D-01
     10 -0.529444D-02 -0.529446D-02  0.493880D-02  0.564937D-02  0.247381D-01
     11  0.370551D-02  0.370551D-02  0.261550D-02 -0.100266D-01  0.139394D-01
     12 -0.305208D-02 -0.305186D-02  0.784703D-02 -0.174429D-02 -0.844671D-02
     13  0.401769D-02 -0.706971D-02  0.392360D-02 -0.872002D-03 -0.422307D-02
     14  0.706976D-02 -0.401786D-02 -0.392343D-02  0.872288D-03  0.422364D-02
                6             7             8             9            10 
      6  0.385338D-01
      7 -0.234089D-01  0.752831D-01
      8 -0.211694D-02  0.256435D-01  0.385343D-01
      9  0.256435D-01 -0.364775D-01 -0.234092D-01  0.752854D-01
     10 -0.296015D-01 -0.275059D-01 -0.296017D-01 -0.275070D-01  0.894781D-01
     11  0.112169D-01 -0.152077D-01  0.112173D-01 -0.152090D-01 -0.595688D-02
     12  0.971551D-02 -0.718732D-02  0.971573D-02 -0.718766D-02  0.339042D-02
     13  0.147320D-01  0.587417D-03 -0.501669D-02 -0.777543D-02  0.169577D-02
     14  0.501646D-02  0.777473D-02 -0.147324D-01 -0.587769D-03 -0.169465D-02
               11            12            13            14 
     11  0.308104D-01
     12  0.155417D-02  0.191479D-01
     13  0.777237D-03  0.957391D-02  0.194410D-01
     14 -0.776933D-03 -0.957395D-02  0.986713D-02  0.194411D-01
 Leave Link  716 at Wed Oct 16 19:56:18 2019, MaxMem= 13421772800 cpu:               2.0 elap:               0.1
 (Enter /soft/gaussian/16-a.03/AVX2/g16/l103.exe)

 GradGradGradGradGradGradGradGradGradGradGradGradGradGradGradGradGradGrad
 Berny optimization.
 Red2BG is reusing G-inverse.
 Internal  Forces:  Max     0.000000311 RMS     0.000000138
 Search for a local minimum.
 Step number   1 out of a maximum of    2
 All quantities printed in internal units (Hartrees-Bohrs-Radians)
 Second derivative matrix not updated -- analytic derivatives used.
 The second derivative matrix:
                          R1        R2        R3        R4        A1
           R1           0.34878
           R2           0.00227   0.34879
           R3           0.00227   0.00227   0.34877
           R4           0.00227   0.00227   0.00227   0.34879
           A1           0.00191   0.00191  -0.00120  -0.00263   0.02043
           A2           0.00300  -0.00077   0.00334  -0.00556  -0.00905
           A3           0.00586  -0.00470  -0.00521   0.00405  -0.01353
           A4          -0.00077   0.00300   0.00334  -0.00556  -0.00905
           A5          -0.00470   0.00586  -0.00521   0.00405  -0.01354
           A6          -0.00529  -0.00529   0.00494   0.00565   0.02474
           D1           0.00371   0.00371   0.00262  -0.01003   0.01394
           D2          -0.00305  -0.00305   0.00785  -0.00174  -0.00845
           D3           0.00402  -0.00707   0.00392  -0.00087  -0.00422
           D4           0.00707  -0.00402  -0.00392   0.00087   0.00422
                          A2        A3        A4        A5        A6
           A2           0.03853
           A3          -0.02341   0.07528
           A4          -0.00212   0.02564   0.03853
           A5           0.02564  -0.03648  -0.02341   0.07529
           A6          -0.02960  -0.02751  -0.02960  -0.02751   0.08948
           D1           0.01122  -0.01521   0.01122  -0.01521  -0.00596
           D2           0.00972  -0.00719   0.00972  -0.00719   0.00339
           D3           0.01473   0.00059  -0.00502  -0.00778   0.00170
           D4           0.00502   0.00777  -0.01473  -0.00059  -0.00169
                          D1        D2        D3        D4
           D1           0.03081
           D2           0.00155   0.01915
           D3           0.00078   0.00957   0.01944
           D4          -0.00078  -0.00957   0.00987   0.01944
 ITU=  0
     Eigenvalues ---    0.03929   0.04427   0.06729   0.13602   0.13655
     Eigenvalues ---    0.34740   0.34742   0.34769   0.35560
 Angle between quadratic step and forces=  34.35 degrees.
 Linear search not attempted -- first point.
 Iteration  1 RMS(Cart)=  0.00000095 RMS(Int)=  0.00000000
 ITry= 1 IFail=0 DXMaxC= 1.85D-06 DCOld= 1.00D+10 DXMaxT= 3.00D-01 DXLimC= 3.00D+00 Rises=F
 Variable       Old X    -DE/DX   Delta X   Delta X   Delta X     New X
                                 (Linear)    (Quad)   (Total)
    R1        2.06597   0.00000   0.00000   0.00000   0.00000   2.06597
    R2        2.06597  -0.00000   0.00000  -0.00000  -0.00000   2.06597
    R3        2.06597   0.00000   0.00000   0.00000   0.00000   2.06597
    R4        2.06597  -0.00000   0.00000  -0.00000  -0.00000   2.06597
    A1        1.91063   0.00000   0.00000   0.00000   0.00000   1.91063
    A2        1.91063  -0.00000   0.00000  -0.00000  -0.00000   1.91063
    A3        1.91063  -0.00000   0.00000   0.00000   0.00000   1.91063
    A4        1.91064  -0.00000   0.00000  -0.00000  -0.00000   1.91063
    A5        1.91063   0.00000   0.00000   0.00000   0.00000   1.91063
    A6        1.91063   0.00000   0.00000   0.00000   0.00000   1.91063
    D1        2.09440  -0.00000   0.00000  -0.00000  -0.00000   2.09440
    D2       -2.09439  -0.00000   0.00000  -0.00000  -0.00000  -2.09440
    D3        2.09440  -0.00000   0.00000  -0.00000  -0.00000   2.09439
    D4       -2.09440   0.00000   0.00000   0.00000   0.00000  -2.09439
         Item               Value     Threshold  Converged?
 Maximum Force            0.000000     0.000015     YES
 RMS     Force            0.000000     0.000010     YES
 Maximum Displacement     0.000002     0.000060     YES
 RMS     Displacement     0.000001     0.000040     YES
 Predicted change in Energy=-1.080709D-12
 Optimization completed.
    -- Stationary point found.
                           ----------------------------
                           !   Optimized Parameters   !
                           ! (Angstroms and Degrees)  !
 --------------------------                            --------------------------
 ! Name  Definition              Value          Derivative Info.                !
 --------------------------------------------------------------------------------
 ! R1    R(1,2)                  1.0933         -DE/DX =    0.0                 !
 ! R2    R(1,3)                  1.0933         -DE/DX =    0.0                 !
 ! R3    R(1,4)                  1.0933         -DE/DX =    0.0                 !
 ! R4    R(1,5)                  1.0933         -DE/DX =    0.0                 !
 ! A1    A(2,1,3)              109.4713         -DE/DX =    0.0                 !
 ! A2    A(2,1,4)              109.4713         -DE/DX =    0.0                 !
 ! A3    A(2,1,5)              109.4712         -DE/DX =    0.0                 !
 ! A4    A(3,1,4)              109.4714         -DE/DX =    0.0                 !
 ! A5    A(3,1,5)              109.4711         -DE/DX =    0.0                 !
 ! A6    A(4,1,5)              109.4711         -DE/DX =    0.0                 !
 ! D1    D(2,1,4,3)            120.0002         -DE/DX =    0.0                 !
 ! D2    D(2,1,5,3)           -120.0            -DE/DX =    0.0                 !
 ! D3    D(2,1,5,4)            120.0            -DE/DX =    0.0                 !
 ! D4    D(3,1,5,4)           -120.0            -DE/DX =    0.0                 !
 --------------------------------------------------------------------------------
 GradGradGradGradGradGradGradGradGradGradGradGradGradGradGradGradGradGrad

 Leave Link  103 at Wed Oct 16 19:56:18 2019, MaxMem= 13421772800 cpu:               0.6 elap:               0.0
 (Enter /soft/gaussian/16-a.03/AVX2/g16/l9999.exe)

 ----------------------------------------------------------------------

 Electric dipole moment (input orientation):
 (Debye = 10**-18 statcoulomb cm , SI units = C m)
                  (au)            (Debye)         (10**-30 SI)
   Tot        0.000000D+00      0.000000D+00      0.000000D+00
   x          0.000000D+00      0.000000D+00      0.000000D+00
   y          0.000000D+00      0.000000D+00      0.000000D+00
   z          0.000000D+00      0.000000D+00      0.000000D+00

 Dipole polarizability, Alpha (input orientation).
 (esu units = cm**3 , SI units = C**2 m**2 J**-1)
 Alpha(0;0):
               (au)            (10**-24 esu)      (10**-40 SI)
   iso        0.123507D+02      0.183019D+01      0.203636D+01
   aniso      0.305847D-04      0.453218D-05      0.504273D-05
   xx         0.123507D+02      0.183019D+01      0.203636D+01
   yx         0.000000D+00      0.000000D+00      0.000000D+00
   yy         0.123507D+02      0.183019D+01      0.203636D+01
   zx         0.000000D+00      0.000000D+00      0.000000D+00
   zy         0.000000D+00      0.000000D+00      0.000000D+00
   zz         0.123507D+02      0.183019D+01      0.203636D+01

 ----------------------------------------------------------------------

 Dipole orientation:
     6         -0.00000450         -0.00001012          0.00003924
     1         -1.12189664          1.38148549         -1.04927413
     1          1.94083977          0.00848986         -0.70797412
     1         -0.81575763         -1.88166827         -0.24923605
     1         -0.00320207          0.49165430          2.00665060

 Electric dipole moment (dipole orientation):
 (Debye = 10**-18 statcoulomb cm , SI units = C m)
                  (au)            (Debye)         (10**-30 SI)
   Tot        0.000000D+00      0.000000D+00      0.000000D+00
   x          0.000000D+00      0.000000D+00      0.000000D+00
   y          0.000000D+00      0.000000D+00      0.000000D+00
   z          0.000000D+00      0.000000D+00      0.000000D+00

 Dipole polarizability, Alpha (dipole orientation).
 (esu units = cm**3 , SI units = C**2 m**2 J**-1)
 Alpha(0;0):
               (au)            (10**-24 esu)      (10**-40 SI)
   iso        0.123507D+02      0.183019D+01      0.203636D+01
   aniso      0.305847D-04      0.453218D-05      0.504273D-05
   xx         0.123507D+02      0.183019D+01      0.203636D+01
   yx         0.125067D-04      0.185330D-05      0.206207D-05
   yy         0.123507D+02      0.183019D+01      0.203636D+01
   zx         0.000000D+00      0.000000D+00      0.000000D+00
   zy         0.000000D+00      0.000000D+00      0.000000D+00
   zz         0.123507D+02      0.183019D+01      0.203636D+01

 ----------------------------------------------------------------------
 1\1\GINC-BDW-0602\Freq\RB3LYP\6-31G(d)\C1H4\LWARD\16-Oct-2019\0\\#P Ge
 om=AllCheck Guess=TCheck SCRF=Check GenChk RB3LYP/6-31G(d) Freq\\H4 C1
 \\0,1\C,-0.0000144827,-0.0000095437,-0.0000128361\H,-0.0000125183,-0.0
 000128298,1.0932512264\H,1.0307239009,0.0000336023,-0.3644370177\H,-0.
 5154247199,0.8926141292,-0.3644316059\H,-0.5153464231,-0.8926772576,-0
 .3644362074\\Version=ES64L-G16RevA.03\State=1-A\HF=-40.5183833\RMSD=3.
 289e-10\RMSF=2.465e-07\ZeroPoint=0.0452192\Thermal=0.0480833\Dipole=-0
 .0000003,-0.0000004,-0.0000003\DipoleDeriv=0.0007147,0.0000007,0.00000
 19,-0.0000006,0.0007171,-0.0000019,-0.0000002,-0.0000017,0.0007148,0.0
 733293,0.0000008,-0.0000005,0.0000006,0.0733291,0.0000006,0.0000006,0.
 0000012,-0.1471939,-0.1226911,-0.0000105,0.0693033,-0.0000081,0.073329
 2,0.0000039,0.0693045,0.000004,0.0488262,0.0243164,0.084885,-0.0346545
 ,0.0848846,-0.0736809,0.0600183,-0.0346541,0.0600174,0.0488264,0.02433
 06,-0.084876,-0.0346502,-0.0848764,-0.0736944,-0.060021,-0.0346507,-0.
 0600209,0.0488265\Polar=12.3507322,-0.0000069,12.3507089,0.0000019,0.0
 000007,12.3507011\Quadrupole=0.0000011,-0.0000031,0.000002,-0.0000038,
 0.0000003,0.0000003\PG=C01 [X(C1H4)]\NImag=0\\0.55892929,0.00000401,0.
 55891856,-0.00000457,0.00000575,0.55892480,-0.04821834,0.00000006,0.00
 000095,0.04673679,0.00000049,-0.04821830,0.00000008,-0.00000031,0.0467
 3693,0.00000072,-0.00000015,-0.32275291,-0.00000076,0.,0.34878102,-0.2
 9225622,-0.00001144,0.08628014,0.00265229,0.00000028,-0.00065746,0.315
 22730,-0.00001116,-0.04822056,0.00000270,-0.00000005,-0.00166464,0.000
 00003,0.00001220,0.04673871,0.08628004,0.00000233,-0.07872827,0.032698
 65,0.00000130,-0.00867607,-0.09492560,-0.00000281,0.08030345,-0.109232
 15,0.10567283,-0.04314064,-0.00058505,-0.00186931,0.00032885,-0.012813
 00,0.02607462,-0.01202677,0.11386487,0.10567238,-0.23122641,0.07471588
 ,-0.00186896,0.00157271,-0.00056930,-0.00116054,0.00157425,-0.00157291
 ,-0.11626166,0.24808400,-0.04314053,0.07471630,-0.07871798,-0.01635076
 ,0.02831745,-0.00867599,0.00465206,-0.01120147,0.00355056,0.04746376,-
 0.08220338,0.08029284,-0.10922257,-0.10566547,-0.04313589,-0.00058568,
 0.00186885,0.00032866,-0.01281037,-0.02607561,-0.01202632,0.00876533,0
 .01361879,0.00737547,0.11385329,-0.10566571,-0.23125328,-0.07472441,0.
 00186926,0.00157330,0.00056942,0.00115950,0.00157224,0.00157209,-0.013
 61648,-0.02000455,-0.00962890,0.11625343,0.24811228,-0.04313566,-0.074
 72423,-0.07872565,-0.01634809,-0.02831882,-0.00867606,0.00465086,0.011
 20156,0.00355033,0.00737480,0.00962971,0.00355057,0.04745808,0.0822117
 9,0.08030081\\-0.00000022,0.00000076,0.00000007,0.,0.00000001,0.,0.000
 00015,-0.00000025,0.00000008,0.00000002,-0.00000040,-0.00000007,0.0000
 0006,-0.00000012,-0.00000008\\\@


 ALL MY ATTEMPTS TO ADAPT THE THEORETICAL FOUNDATIONS OF PHYSICS
 TO THESE NEW NOTIONS FAILED COMPLETELY. IT WAS AS IF THE GROUND HAD
 BEEN PULLED OUT FROM UNDER ONE WITH NO FIRM FOUNDATION TO BE SEEN ANYWHERE,
 UPON WHICH ONE COULD HAVE BUILT.  -- A.EINSTEIN
 Job cpu time:       0 days  0 hours  1 minutes 24.6 seconds.
 Elapsed time:       0 days  0 hours  0 minutes  3.1 seconds.
 File lengths (MBytes):  RWF=      6 Int=      0 D2E=      0 Chk=      1 Scr=      1
 Normal termination of Gaussian 16 at Wed Oct 16 19:56:18 2019.
