 Entering Gaussian System, Link 0=g16
 Initial command:
 /soft/gaussian/16-a.03/AVX2/g16/l1.exe "/scratch/Gau-184335.inp" -scrdir="/scratch/"
 Default CPUs for threads: 0-35
 Default linda workers: bdw-0157
 Default is to use  36 SMP processors on each worker.
 Entering Link 1 = /soft/gaussian/16-a.03/AVX2/g16/l1.exe PID=    184337.
  
 Copyright (c) 1988,1990,1992,1993,1995,1998,2003,2009,2016,
            Gaussian, Inc.  All Rights Reserved.
  
 This is part of the Gaussian(R) 16 program.  It is based on
 the Gaussian(R) 09 system (copyright 2009, Gaussian, Inc.),
 the Gaussian(R) 03 system (copyright 2003, Gaussian, Inc.),
 the Gaussian(R) 98 system (copyright 1998, Gaussian, Inc.),
 the Gaussian(R) 94 system (copyright 1995, Gaussian, Inc.),
 the Gaussian 92(TM) system (copyright 1992, Gaussian, Inc.),
 the Gaussian 90(TM) system (copyright 1990, Gaussian, Inc.),
 the Gaussian 88(TM) system (copyright 1988, Gaussian, Inc.),
 the Gaussian 86(TM) system (copyright 1986, Carnegie Mellon
 University), and the Gaussian 82(TM) system (copyright 1983,
 Carnegie Mellon University). Gaussian is a federally registered
 trademark of Gaussian, Inc.
  
 This software contains proprietary and confidential information,
 including trade secrets, belonging to Gaussian, Inc.
  
 This software is provided under written license and may be
 used, copied, transmitted, or stored only in accord with that
 written license.
  
 The following legend is applicable only to US Government
 contracts under FAR:
  
                    RESTRICTED RIGHTS LEGEND
  
 Use, reproduction and disclosure by the US Government is
 subject to restrictions as set forth in subparagraphs (a)
 and (c) of the Commercial Computer Software - Restricted
 Rights clause in FAR 52.227-19.
  
 Gaussian, Inc.
 340 Quinnipiac St., Bldg. 40, Wallingford CT 06492
  
  
 ---------------------------------------------------------------
 Warning -- This program may not be used in any manner that
 competes with the business of Gaussian, Inc. or will provide
 assistance to any competitor of Gaussian, Inc.  The licensee
 of this program is prohibited from giving any competitor of
 Gaussian, Inc. access to this program.  By using this program,
 the user acknowledges that Gaussian, Inc. is engaged in the
 business of creating and licensing software in the field of
 computational chemistry and represents and warrants to the
 licensee that it is not a competitor of Gaussian, Inc. and that
 it will not use this program in any manner prohibited above.
 ---------------------------------------------------------------
  

 Cite this work as:
 Gaussian 16, Revision A.03,
 M. J. Frisch, G. W. Trucks, H. B. Schlegel, G. E. Scuseria, 
 M. A. Robb, J. R. Cheeseman, G. Scalmani, V. Barone, 
 G. A. Petersson, H. Nakatsuji, X. Li, M. Caricato, A. V. Marenich, 
 J. Bloino, B. G. Janesko, R. Gomperts, B. Mennucci, H. P. Hratchian, 
 J. V. Ortiz, A. F. Izmaylov, J. L. Sonnenberg, D. Williams-Young, 
 F. Ding, F. Lipparini, F. Egidi, J. Goings, B. Peng, A. Petrone, 
 T. Henderson, D. Ranasinghe, V. G. Zakrzewski, J. Gao, N. Rega, 
 G. Zheng, W. Liang, M. Hada, M. Ehara, K. Toyota, R. Fukuda, 
 J. Hasegawa, M. Ishida, T. Nakajima, Y. Honda, O. Kitao, H. Nakai, 
 T. Vreven, K. Throssell, J. A. Montgomery, Jr., J. E. Peralta, 
 F. Ogliaro, M. J. Bearpark, J. J. Heyd, E. N. Brothers, K. N. Kudin, 
 V. N. Staroverov, T. A. Keith, R. Kobayashi, J. Normand, 
 K. Raghavachari, A. P. Rendell, J. C. Burant, S. S. Iyengar, 
 J. Tomasi, M. Cossi, J. M. Millam, M. Klene, C. Adamo, R. Cammi, 
 J. W. Ochterski, R. L. Martin, K. Morokuma, O. Farkas, 
 J. B. Foresman, and D. J. Fox, Gaussian, Inc., Wallingford CT, 2016.
 
 ******************************************
 Gaussian 16:  ES64L-G16RevA.03 25-Dec-2016
                15-Oct-2019 
 ******************************************
 SetSPE:  set environment variable "MP_BIND" = "yes"
 SetSPE:  set environment variable "MP_BLIST" = "0,1,2,3,4,5,6,7,8,9,10,11,12,13,14,15,16,17,18,19,20,21,22,23,24,25,26,27,28,29,30,31,32,33,34,35"
 SetLPE:  input flags="-vv "
 SetLPE:    new flags="-vv -opt 'Tsnet.Node.lindarsharg: ssh'  -nodelist 'bdw-0157.lcrc.anl.gov' -env GAUSS_MDEF=13421772800 -env GAUSS_EXEDIR="/soft/gaussian/16-a.03/AVX2/g16/bsd:/soft/gaussian/16-a.03/AVX2/g16" -env MP_BIND=yes -env MP_BLIST=0,1,2,3,4,5,6,7,8,9,10,11,12,13,14,15,16,17,18,19,20,21,22,23,24,25,26,27,28,29,30,31,32,33,34,35 -env GAUSS_ADEF=0,1,2,3,4,5,6,7,8,9,10,11,12,13,14,15,16,17,18,19,20,21,22,23,24,25,26,27,28,29,30,31,32,33,34,35"
 Will use up to    1 processors via Linda.
 ---------------------------
 #P b3lyp/6-31G(d) OPT=Tight
 ---------------------------
 1/7=10,18=20,19=15,26=3,38=1/1,3;
 2/9=110,12=2,17=6,18=5,40=1/2;
 3/5=1,6=6,7=1,11=2,25=1,30=1,71=1,74=-5/1,2,3;
 4//1;
 5/5=2,38=5/2;
 6/7=2,8=2,9=2,10=2,28=1/1;
 7//1,2,3,16;
 1/7=10,18=20,19=15,26=3/3(2);
 2/9=110/2;
 99//99;
 2/9=110/2;
 3/5=1,6=6,7=1,11=2,25=1,30=1,71=1,74=-5/1,2,3;
 4/5=5,16=3,69=1/1;
 5/5=2,38=5/2;
 7//1,2,3,16;
 1/7=10,18=20,19=15,26=3/3(-5);
 2/9=110/2;
 6/7=2,8=2,9=2,10=2,19=2,28=1/1;
 99/9=1/99;
 Leave Link    1 at Tue Oct 15 17:31:50 2019, MaxMem=           0 cpu:               2.1 elap:               0.1
 (Enter /soft/gaussian/16-a.03/AVX2/g16/l101.exe)
 -----
 H4 C1
 -----
 Symbolic Z-matrix:
 Charge =  0 Multiplicity = 1
 C
 H                    1    B1
 H                    1    B2       2    A2
 H                    1    B3       2    A3       3    D3       0
 H                    1    B4       4    A4       3    D4       0
       Variables:
  B1                    1.09216                  
  B2                    1.09218                  
  A2                  109.4703                   
  B3                    1.0922                   
  A3                  109.47104                  
  D3                 -120.0059                   
  B4                    1.09219                  
  A4                  109.46675                  
  D4                 -119.99765                  
 
     2 tetrahedral angles replaced.
 ITRead=  0  0  0  0  0
 MicOpt= -1 -1 -1 -1 -1
 NAtoms=      5 NQM=        5 NQMF=       0 NMMI=      0 NMMIF=      0
                NMic=       0 NMicF=      0.
                    Isotopes and Nuclear Properties:
 (Nuclear quadrupole moments (NQMom) in fm**2, nuclear magnetic moments (NMagM)
  in nuclear magnetons)

  Atom         1           2           3           4           5
 IAtWgt=          12           1           1           1           1
 AtmWgt=  12.0000000   1.0078250   1.0078250   1.0078250   1.0078250
 NucSpn=           0           1           1           1           1
 AtZEff=  -0.0000000  -0.0000000  -0.0000000  -0.0000000  -0.0000000
 NQMom=    0.0000000   0.0000000   0.0000000   0.0000000   0.0000000
 NMagM=    0.0000000   2.7928460   2.7928460   2.7928460   2.7928460
 AtZNuc=   6.0000000   1.0000000   1.0000000   1.0000000   1.0000000
 Leave Link  101 at Tue Oct 15 17:31:51 2019, MaxMem= 13421772800 cpu:              12.5 elap:               0.4
 (Enter /soft/gaussian/16-a.03/AVX2/g16/l103.exe)

 GradGradGradGradGradGradGradGradGradGradGradGradGradGradGradGradGradGrad
 Berny optimization.
 Initialization pass.
                           ----------------------------
                           !    Initial Parameters    !
                           ! (Angstroms and Degrees)  !
 --------------------------                            --------------------------
 ! Name  Definition              Value          Derivative Info.                !
 --------------------------------------------------------------------------------
 ! R1    R(1,2)                  1.0922         estimate D2E/DX2                !
 ! R2    R(1,3)                  1.0922         estimate D2E/DX2                !
 ! R3    R(1,4)                  1.0922         estimate D2E/DX2                !
 ! R4    R(1,5)                  1.0922         estimate D2E/DX2                !
 ! A1    A(2,1,3)              109.4712         estimate D2E/DX2                !
 ! A2    A(2,1,4)              109.4712         estimate D2E/DX2                !
 ! A3    A(2,1,5)              109.473          estimate D2E/DX2                !
 ! A4    A(3,1,4)              109.476          estimate D2E/DX2                !
 ! A5    A(3,1,5)              109.4691         estimate D2E/DX2                !
 ! A6    A(4,1,5)              109.4668         estimate D2E/DX2                !
 ! D1    D(2,1,4,3)            120.0029         estimate D2E/DX2                !
 ! D2    D(2,1,5,3)           -119.9998         estimate D2E/DX2                !
 ! D3    D(2,1,5,4)            119.9983         estimate D2E/DX2                !
 ! D4    D(3,1,5,4)           -120.0019         estimate D2E/DX2                !
 --------------------------------------------------------------------------------
 Trust Radius=3.00D-01 FncErr=1.00D-07 GrdErr=1.00D-06 EigMax=2.50D+02 EigMin=1.00D-04
 Number of steps in this run=     24 maximum allowed number of steps=    100.
 GradGradGradGradGradGradGradGradGradGradGradGradGradGradGradGradGradGrad

 Leave Link  103 at Tue Oct 15 17:31:51 2019, MaxMem= 13421772800 cpu:               0.6 elap:               0.1
 (Enter /soft/gaussian/16-a.03/AVX2/g16/l202.exe)
                          Input orientation:                          
 ---------------------------------------------------------------------
 Center     Atomic      Atomic             Coordinates (Angstroms)
 Number     Number       Type             X           Y           Z
 ---------------------------------------------------------------------
      1          6           0        0.000000    0.000000    0.000000
      2          1           0        0.000000    0.000000    1.092156
      3          1           0        1.029720    0.000000   -0.364061
      4          1           0       -0.514959    0.891723   -0.364066
      5          1           0       -0.514835   -0.891775   -0.364095
 ---------------------------------------------------------------------
                    Distance matrix (angstroms):
                    1          2          3          4          5
     1  C    0.000000
     2  H    1.092156   0.000000
     3  H    1.092183   1.783505   0.000000
     4  H    1.092198   1.783518   1.783593   0.000000
     5  H    1.092192   1.783532   1.783512   1.783498   0.000000
 Stoichiometry    CH4
 Framework group  C1[X(CH4)]
 Deg. of freedom     9
 Full point group                 C1      NOp   1
 Largest Abelian subgroup         C1      NOp   1
 Largest concise Abelian subgroup C1      NOp   1
                         Standard orientation:                         
 ---------------------------------------------------------------------
 Center     Atomic      Atomic             Coordinates (Angstroms)
 Number     Number       Type             X           Y           Z
 ---------------------------------------------------------------------
      1          6           0        0.000006    0.000009   -0.000003
      2          1           0        0.181904    0.911314    0.573792
      3          1           0        0.871610   -0.219628   -0.620431
      4          1           0       -0.875222    0.140189   -0.638144
      5          1           0       -0.178327   -0.831929    0.684803
 ---------------------------------------------------------------------
 Rotational constants (GHZ):         157.6485326         157.6427210         157.6360098
 Leave Link  202 at Tue Oct 15 17:31:52 2019, MaxMem= 13421772800 cpu:               0.6 elap:               0.1
 (Enter /soft/gaussian/16-a.03/AVX2/g16/l301.exe)
 Standard basis: 6-31G(d) (6D, 7F)
 Ernie: Thresh=  0.10000D-02 Tol=  0.10000D-05 Strict=F.
 There are    23 symmetry adapted cartesian basis functions of A   symmetry.
 There are    23 symmetry adapted basis functions of A   symmetry.
    23 basis functions,    44 primitive gaussians,    23 cartesian basis functions
     5 alpha electrons        5 beta electrons
       nuclear repulsion energy        13.4085444911 Hartrees.
 IExCor=  402 DFT=T Ex+Corr=B3LYP ExCW=0 ScaHFX=  0.200000
 ScaDFX=  0.800000  0.720000  1.000000  0.810000 ScalE2=  1.000000  1.000000
 IRadAn=      5 IRanWt=     -1 IRanGd=            0 ICorTp=0 IEmpDi=  4
 NAtoms=    5 NActive=    5 NUniq=    5 SFac= 1.00D+00 NAtFMM=   60 NAOKFM=F Big=F
 Integral buffers will be    131072 words long.
 Raffenetti 2 integral format.
 Two-electron integral symmetry is turned on.
 Leave Link  301 at Tue Oct 15 17:31:52 2019, MaxMem= 13421772800 cpu:               1.8 elap:               0.1
 (Enter /soft/gaussian/16-a.03/AVX2/g16/l302.exe)
 NPDir=0 NMtPBC=     1 NCelOv=     1 NCel=       1 NClECP=     1 NCelD=      1
         NCelK=      1 NCelE2=     1 NClLst=     1 CellRange=     0.0.
 One-electron integrals computed using PRISM.
 One-electron integral symmetry used in STVInt
 NBasis=    23 RedAO= T EigKep=  1.79D-02  NBF=    23
 NBsUse=    23 1.00D-06 EigRej= -1.00D+00 NBFU=    23
 Precomputing XC quadrature grid using
 IXCGrd= 4 IRadAn=           5 IRanWt=          -1 IRanGd=           0 AccXCQ= 0.00D+00.
 Generated NRdTot=       0 NPtTot=           0 NUsed=           0 NTot=          32
 NSgBfM=    23    23    23    23    23 MxSgAt=     5 MxSgA2=     5.
 Leave Link  302 at Tue Oct 15 17:31:53 2019, MaxMem= 13421772800 cpu:               5.6 elap:               0.2
 (Enter /soft/gaussian/16-a.03/AVX2/g16/l303.exe)
 DipDrv:  MaxL=1.
 Leave Link  303 at Tue Oct 15 17:31:53 2019, MaxMem= 13421772800 cpu:               1.1 elap:               0.1
 (Enter /soft/gaussian/16-a.03/AVX2/g16/l401.exe)
 ExpMin= 1.61D-01 ExpMax= 3.05D+03 ExpMxC= 4.57D+02 IAcc=3 IRadAn=         5 AccDes= 0.00D+00
 Harris functional with IExCor=  402 and IRadAn=       5 diagonalized for initial guess.
 HarFok:  IExCor=  402 AccDes= 0.00D+00 IRadAn=         5 IDoV= 1 UseB2=F ITyADJ=14
 ICtDFT=  3500011 ScaDFX=  1.000000  1.000000  1.000000  1.000000
 FoFCou: FMM=F IPFlag=           0 FMFlag=      100000 FMFlg1=           0
         NFxFlg=           0 DoJE=T BraDBF=F KetDBF=T FulRan=T
         wScrn=  0.000000 ICntrl=       500 IOpCl=  0 I1Cent=   200000004 NGrid=           0
         NMat0=    1 NMatS0=      1 NMatT0=    0 NMatD0=    1 NMtDS0=    0 NMtDT0=    0
 Petite list used in FoFCou.
 Harris En= -40.5609560948940    
 JPrj=0 DoOrth=F DoCkMO=F.
 Leave Link  401 at Tue Oct 15 17:31:54 2019, MaxMem= 13421772800 cpu:               6.6 elap:               0.3
 (Enter /soft/gaussian/16-a.03/AVX2/g16/l502.exe)
 Keep R1 ints in memory in canonical form, NReq=31068512.
 FoFCou: FMM=F IPFlag=           0 FMFlag=           0 FMFlg1=           0
         NFxFlg=           0 DoJE=F BraDBF=F KetDBF=F FulRan=T
         wScrn=  0.000000 ICntrl=       600 IOpCl=  0 I1Cent=           0 NGrid=           0
         NMat0=    1 NMatS0=    276 NMatT0=    0 NMatD0=    1 NMtDS0=    0 NMtDT0=    0
 Symmetry not used in FoFCou.
 Two-electron integral symmetry not used.
 Closed shell SCF:
 Using DIIS extrapolation, IDIIS=  1040.
 NGot= 13421772800 LenX= 13421732188 LenY= 13421731218
 Requested convergence on RMS density matrix=1.00D-08 within 128 cycles.
 Requested convergence on MAX density matrix=1.00D-06.
 Requested convergence on             energy=1.00D-06.
 No special actions if energy rises.
 Integral accuracy reduced to 1.0D-05 until final iterations.

 Cycle   1  Pass 0  IDiag  1:
 E= -40.4290627874843    
 DIIS: error= 7.11D-02 at cycle   1 NSaved=   1.
 NSaved= 1 IEnMin= 1 EnMin= -40.4290627874843     IErMin= 1 ErrMin= 7.11D-02
 ErrMax= 7.11D-02  0.00D+00 EMaxC= 1.00D-01 BMatC= 8.24D-02 BMatP= 8.24D-02
 IDIUse=3 WtCom= 2.89D-01 WtEn= 7.11D-01
 Coeff-Com:  0.100D+01
 Coeff-En:   0.100D+01
 Coeff:      0.100D+01
 Gap=     0.431 Goal=   None    Shift=    0.000
 GapD=    0.431 DampG=2.000 DampE=0.500 DampFc=1.0000 IDamp=-1.
 RMSDP=2.23D-02 MaxDP=1.54D-01              OVMax= 1.89D-01

 Cycle   2  Pass 0  IDiag  1:
 E= -40.4080315786032     Delta-E=        0.021031208881 Rises=F Damp=F
 DIIS: error= 7.66D-02 at cycle   2 NSaved=   2.
 NSaved= 2 IEnMin= 1 EnMin= -40.4290627874843     IErMin= 1 ErrMin= 7.11D-02
 ErrMax= 7.66D-02  0.00D+00 EMaxC= 1.00D-01 BMatC= 1.01D-01 BMatP= 8.24D-02
 IDIUse=2 WtCom= 0.00D+00 WtEn= 1.00D+00
 Coeff-En:   0.550D+00 0.450D+00
 Coeff:      0.550D+00 0.450D+00
 Gap=     0.498 Goal=   None    Shift=    0.000
 RMSDP=1.13D-02 MaxDP=7.02D-02 DE= 2.10D-02 OVMax= 9.41D-02

 Cycle   3  Pass 0  IDiag  1:
 E= -40.5181221798202     Delta-E=       -0.110090601217 Rises=F Damp=F
 DIIS: error= 3.83D-03 at cycle   3 NSaved=   3.
 NSaved= 3 IEnMin= 3 EnMin= -40.5181221798202     IErMin= 3 ErrMin= 3.83D-03
 ErrMax= 3.83D-03  0.00D+00 EMaxC= 1.00D-01 BMatC= 2.63D-04 BMatP= 8.24D-02
 IDIUse=3 WtCom= 9.62D-01 WtEn= 3.83D-02
 Coeff-Com:  0.140D-01-0.397D-01 0.103D+01
 Coeff-En:   0.000D+00 0.000D+00 0.100D+01
 Coeff:      0.135D-01-0.382D-01 0.102D+01
 Gap=     0.507 Goal=   None    Shift=    0.000
 RMSDP=5.06D-04 MaxDP=3.99D-03 DE=-1.10D-01 OVMax= 4.49D-03

 Cycle   4  Pass 0  IDiag  1:
 E= -40.5183809131465     Delta-E=       -0.000258733326 Rises=F Damp=F
 DIIS: error= 3.16D-05 at cycle   4 NSaved=   4.
 NSaved= 4 IEnMin= 4 EnMin= -40.5183809131465     IErMin= 4 ErrMin= 3.16D-05
 ErrMax= 3.16D-05  0.00D+00 EMaxC= 1.00D-01 BMatC= 2.20D-08 BMatP= 2.63D-04
 IDIUse=1 WtCom= 1.00D+00 WtEn= 0.00D+00
 Coeff-Com:  0.140D-02-0.939D-03 0.397D-01 0.960D+00
 Coeff:      0.140D-02-0.939D-03 0.397D-01 0.960D+00
 Gap=     0.507 Goal=   None    Shift=    0.000
 RMSDP=5.50D-06 MaxDP=2.78D-05 DE=-2.59D-04 OVMax= 4.85D-05

 Initial convergence to 1.0D-05 achieved.  Increase integral accuracy.
 Cycle   5  Pass 1  IDiag  1:
 E= -40.5183803059185     Delta-E=        0.000000607228 Rises=F Damp=F
 DIIS: error= 6.19D-06 at cycle   1 NSaved=   1.
 NSaved= 1 IEnMin= 1 EnMin= -40.5183803059185     IErMin= 1 ErrMin= 6.19D-06
 ErrMax= 6.19D-06  0.00D+00 EMaxC= 1.00D-01 BMatC= 8.21D-10 BMatP= 8.21D-10
 IDIUse=1 WtCom= 1.00D+00 WtEn= 0.00D+00
 Coeff-Com:  0.100D+01
 Coeff:      0.100D+01
 Gap=     0.507 Goal=   None    Shift=    0.000
 RMSDP=5.50D-06 MaxDP=2.78D-05 DE= 6.07D-07 OVMax= 1.45D-05

 Cycle   6  Pass 1  IDiag  1:
 E= -40.5183803058100     Delta-E=        0.000000000108 Rises=F Damp=F
 DIIS: error= 6.95D-06 at cycle   2 NSaved=   2.
 NSaved= 2 IEnMin= 1 EnMin= -40.5183803059185     IErMin= 1 ErrMin= 6.19D-06
 ErrMax= 6.95D-06  0.00D+00 EMaxC= 1.00D-01 BMatC= 8.34D-10 BMatP= 8.21D-10
 IDIUse=1 WtCom= 1.00D+00 WtEn= 0.00D+00
 Coeff-Com:  0.502D+00 0.498D+00
 Coeff:      0.502D+00 0.498D+00
 Gap=     0.507 Goal=   None    Shift=    0.000
 RMSDP=1.05D-06 MaxDP=7.91D-06 DE= 1.08D-10 OVMax= 9.25D-06

 Cycle   7  Pass 1  IDiag  1:
 E= -40.5183803066480     Delta-E=       -0.000000000838 Rises=F Damp=F
 DIIS: error= 5.32D-07 at cycle   3 NSaved=   3.
 NSaved= 3 IEnMin= 3 EnMin= -40.5183803066480     IErMin= 3 ErrMin= 5.32D-07
 ErrMax= 5.32D-07  0.00D+00 EMaxC= 1.00D-01 BMatC= 5.26D-12 BMatP= 8.21D-10
 IDIUse=1 WtCom= 1.00D+00 WtEn= 0.00D+00
 Coeff-Com: -0.298D-01 0.485D-01 0.981D+00
 Coeff:     -0.298D-01 0.485D-01 0.981D+00
 Gap=     0.507 Goal=   None    Shift=    0.000
 RMSDP=7.04D-08 MaxDP=5.81D-07 DE=-8.38D-10 OVMax= 6.64D-07

 Cycle   8  Pass 1  IDiag  1:
 E= -40.5183803066533     Delta-E=       -0.000000000005 Rises=F Damp=F
 DIIS: error= 8.86D-09 at cycle   4 NSaved=   4.
 NSaved= 4 IEnMin= 4 EnMin= -40.5183803066533     IErMin= 4 ErrMin= 8.86D-09
 ErrMax= 8.86D-09  0.00D+00 EMaxC= 1.00D-01 BMatC= 1.64D-15 BMatP= 5.26D-12
 IDIUse=1 WtCom= 1.00D+00 WtEn= 0.00D+00
 Coeff-Com: -0.388D-02-0.855D-04 0.571D-01 0.947D+00
 Coeff:     -0.388D-02-0.855D-04 0.571D-01 0.947D+00
 Gap=     0.507 Goal=   None    Shift=    0.000
 RMSDP=3.20D-09 MaxDP=1.85D-08 DE=-5.24D-12 OVMax= 2.09D-08

 SCF Done:  E(RB3LYP) =  -40.5183803067     A.U. after    8 cycles
            NFock=  8  Conv=0.32D-08     -V/T= 2.0110
 KE= 4.007663399799D+01 PE=-1.198604805455D+02 EE= 2.585692174968D+01
 Leave Link  502 at Tue Oct 15 17:31:55 2019, MaxMem= 13421772800 cpu:               9.0 elap:               0.4
 (Enter /soft/gaussian/16-a.03/AVX2/g16/l601.exe)
 Copying SCF densities to generalized density rwf, IOpCl= 0 IROHF=0.

 **********************************************************************

            Population analysis using the SCF density.

 **********************************************************************

 Orbital symmetries:
       Occupied  (A) (A) (A) (A) (A)
       Virtual   (A) (A) (A) (A) (A) (A) (A) (A) (A) (A) (A) (A)
                 (A) (A) (A) (A) (A) (A)
 The electronic state is 1-A.
 Alpha  occ. eigenvalues --  -10.16649  -0.69063  -0.38925  -0.38925  -0.38923
 Alpha virt. eigenvalues --    0.11818   0.17687   0.17688   0.17689   0.53292
 Alpha virt. eigenvalues --    0.53293   0.53294   0.89854   0.89856   0.89857
 Alpha virt. eigenvalues --    0.94908   1.10018   1.65630   1.65631   2.24506
 Alpha virt. eigenvalues --    2.24508   2.24510   4.17996
          Condensed to atoms (all electrons):
               1          2          3          4          5
     1  C    5.092735   0.383985   0.383982   0.383980   0.383979
     2  H    0.383985   0.539291  -0.026818  -0.026817  -0.026814
     3  H    0.383982  -0.026818   0.539297  -0.026810  -0.026818
     4  H    0.383980  -0.026817  -0.026810   0.539306  -0.026820
     5  H    0.383979  -0.026814  -0.026818  -0.026820   0.539312
 Mulliken charges:
               1
     1  C   -0.628662
     2  H    0.157173
     3  H    0.157166
     4  H    0.157161
     5  H    0.157161
 Sum of Mulliken charges =  -0.00000
 Mulliken charges with hydrogens summed into heavy atoms:
               1
     1  C   -0.000000
 Electronic spatial extent (au):  <R**2>=             35.4368
 Charge=             -0.0000 electrons
 Dipole moment (field-independent basis, Debye):
    X=             -0.0000    Y=             -0.0000    Z=              0.0000  Tot=              0.0000
 Quadrupole moment (field-independent basis, Debye-Ang):
   XX=             -8.2483   YY=             -8.2484   ZZ=             -8.2487
   XY=              0.0000   XZ=             -0.0000   YZ=              0.0001
 Traceless Quadrupole moment (field-independent basis, Debye-Ang):
   XX=              0.0002   YY=              0.0000   ZZ=             -0.0002
   XY=              0.0000   XZ=             -0.0000   YZ=              0.0001
 Octapole moment (field-independent basis, Debye-Ang**2):
  XXX=             -0.0052  YYY=              0.1155  ZZZ=              0.0077  XYY=              0.0350
  XXY=             -0.0372  XXZ=             -0.6128  XZZ=             -0.0297  YZZ=             -0.0783
  YYZ=              0.6052  XYZ=              0.2625
 Hexadecapole moment (field-independent basis, Debye-Ang**3):
 XXXX=            -15.1656 YYYY=            -15.1594 ZZZZ=            -15.7148 XXXY=             -0.2407
 XXXZ=              0.0174 YYYX=              0.2402 YYYZ=              0.0471 ZZZX=             -0.0038
 ZZZY=             -0.0828 XXYY=             -5.3570 XXZZ=             -4.8015 YYZZ=             -4.8073
 XXYZ=              0.0359 YYXZ=             -0.0136 ZZXY=              0.0005
 N-N= 1.340854449115D+01 E-N=-1.198604803419D+02  KE= 4.007663399799D+01
 No NMR shielding tensors so no spin-rotation constants.
 Leave Link  601 at Tue Oct 15 17:31:55 2019, MaxMem= 13421772800 cpu:               3.7 elap:               0.1
 (Enter /soft/gaussian/16-a.03/AVX2/g16/l701.exe)
 ... and contract with generalized density number  0.
 Compute integral first derivatives.
 Leave Link  701 at Tue Oct 15 17:31:55 2019, MaxMem= 13421772800 cpu:               4.8 elap:               0.2
 (Enter /soft/gaussian/16-a.03/AVX2/g16/l702.exe)
 L702 exits ... SP integral derivatives will be done elsewhere.
 Leave Link  702 at Tue Oct 15 17:31:56 2019, MaxMem= 13421772800 cpu:               1.0 elap:               0.1
 (Enter /soft/gaussian/16-a.03/AVX2/g16/l703.exe)
 Integral derivatives from FoFJK, PRISM(SPDF).
 Compute integral first derivatives, UseDBF=F ICtDFT=           0.
 Calling FoFJK, ICntrl=      2127 FMM=F ISym2X=0 I1Cent= 0 IOpClX= 0 NMat=1 NMatS=1 NMatT=0.
 FoFJK:  IHMeth= 1 ICntrl=    2127 DoSepK=F KAlg= 0 I1Cent=           0 FoldK=F
 IRaf=         0 NMat=       1 IRICut=       1 DoRegI=T DoRafI=F ISym2E= 0 IDoP0=0 IntGTp=1.
 FoFCou: FMM=F IPFlag=           0 FMFlag=      100000 FMFlg1=         800
         NFxFlg=           0 DoJE=F BraDBF=F KetDBF=F FulRan=T
         wScrn=  0.000000 ICntrl=      2127 IOpCl=  0 I1Cent=           0 NGrid=           0
         NMat0=    1 NMatS0=      1 NMatT0=    0 NMatD0=    1 NMtDS0=    0 NMtDT0=    0
 Symmetry not used in FoFCou.
 Leave Link  703 at Tue Oct 15 17:31:56 2019, MaxMem= 13421772800 cpu:               9.2 elap:               0.4
 (Enter /soft/gaussian/16-a.03/AVX2/g16/l716.exe)
 Dipole        =-4.41522484D-07-1.10510275D-06 1.20107828D-05
 ***** Axes restored to original set *****
 -------------------------------------------------------------------
 Center     Atomic                   Forces (Hartrees/Bohr)
 Number     Number              X              Y              Z
 -------------------------------------------------------------------
      1        6          -0.000012747   -0.000001731   -0.000024136
      2        1          -0.000001279   -0.000001754    0.000745927
      3        1           0.000685497    0.000006655   -0.000244926
      4        1          -0.000330978    0.000590947   -0.000240606
      5        1          -0.000340493   -0.000594117   -0.000236259
 -------------------------------------------------------------------
 Cartesian Forces:  Max     0.000745927 RMS     0.000376695
 Leave Link  716 at Tue Oct 15 17:31:57 2019, MaxMem= 13421772800 cpu:               1.3 elap:               0.1
 (Enter /soft/gaussian/16-a.03/AVX2/g16/l103.exe)

 GradGradGradGradGradGradGradGradGradGradGradGradGradGradGradGradGradGrad
 Berny optimization.
 FormGI is forming the generalized inverse of G from B-inverse, IUseBI=4.
 Internal  Forces:  Max     0.000745927 RMS     0.000389853
 Search for a local minimum.
 Step number   1 out of a maximum of   24
 All quantities printed in internal units (Hartrees-Bohrs-Radians)
 RMS Force = .38985D-03 SwitMx=.10000D-02 MixMth= 2
 Mixed Optimization -- En-DIIS/RFO-DIIS
 Second derivative matrix not updated -- first step.
 The second derivative matrix:
                          R1        R2        R3        R4        A1
           R1           0.34565
           R2           0.00000   0.34562
           R3           0.00000   0.00000   0.34560
           R4           0.00000   0.00000   0.00000   0.34561
           A1           0.00000   0.00000   0.00000   0.00000   0.16000
           A2           0.00000   0.00000   0.00000   0.00000   0.00000
           A3           0.00000   0.00000   0.00000   0.00000   0.00000
           A4           0.00000   0.00000   0.00000   0.00000   0.00000
           A5           0.00000   0.00000   0.00000   0.00000   0.00000
           A6           0.00000   0.00000   0.00000   0.00000   0.00000
           D1           0.00000   0.00000   0.00000   0.00000   0.00000
           D2           0.00000   0.00000   0.00000   0.00000   0.00000
           D3           0.00000   0.00000   0.00000   0.00000   0.00000
           D4           0.00000   0.00000   0.00000   0.00000   0.00000
                          A2        A3        A4        A5        A6
           A2           0.16000
           A3           0.00000   0.16000
           A4           0.00000   0.00000   0.16000
           A5           0.00000   0.00000   0.00000   0.16000
           A6           0.00000   0.00000   0.00000   0.00000   0.16000
           D1           0.00000   0.00000   0.00000   0.00000   0.00000
           D2           0.00000   0.00000   0.00000   0.00000   0.00000
           D3           0.00000   0.00000   0.00000   0.00000   0.00000
           D4           0.00000   0.00000   0.00000   0.00000   0.00000
                          D1        D2        D3        D4
           D1           0.00230
           D2           0.00000   0.00230
           D3           0.00000   0.00000   0.00230
           D4           0.00000   0.00000   0.00000   0.00230
 ITU=  0
     Eigenvalues ---    0.05082   0.05716   0.08640   0.16000   0.16000
     Eigenvalues ---    0.34560   0.34561   0.34562   0.34565
 RFO step:  Lambda=-6.15749568D-06 EMin= 5.08244898D-02
 Linear search not attempted -- first point.
 Iteration  1 RMS(Cart)=  0.00112828 RMS(Int)=  0.00000003
 Iteration  2 RMS(Cart)=  0.00000003 RMS(Int)=  0.00000000
 ITry= 1 IFail=0 DXMaxC= 2.14D-03 DCOld= 1.00D+10 DXMaxT= 3.00D-01 DXLimC= 3.00D+00 Rises=F
 Variable       Old X    -DE/DX   Delta X   Delta X   Delta X     New X
                                 (Linear)    (Quad)   (Total)
    R1        2.06388   0.00075   0.00000   0.00216   0.00216   2.06603
    R2        2.06393   0.00073   0.00000   0.00211   0.00211   2.06603
    R3        2.06396   0.00072   0.00000   0.00208   0.00208   2.06603
    R4        2.06394   0.00072   0.00000   0.00210   0.00210   2.06604
    A1        1.91063   0.00000   0.00000   0.00001   0.00001   1.91064
    A2        1.91063  -0.00000   0.00000   0.00000   0.00000   1.91064
    A3        1.91066  -0.00001   0.00000  -0.00003  -0.00003   1.91064
    A4        1.91072  -0.00001   0.00000  -0.00007  -0.00007   1.91064
    A5        1.91060   0.00000   0.00000   0.00003   0.00003   1.91062
    A6        1.91056   0.00001   0.00000   0.00006   0.00006   1.91061
    D1        2.09445  -0.00000   0.00000  -0.00003  -0.00003   2.09441
    D2       -2.09439  -0.00000   0.00000  -0.00001  -0.00001  -2.09440
    D3        2.09437   0.00000   0.00000   0.00003   0.00003   2.09439
    D4       -2.09443   0.00000   0.00000   0.00004   0.00004  -2.09439
         Item               Value     Threshold  Converged?
 Maximum Force            0.000746     0.000015     NO 
 RMS     Force            0.000390     0.000010     NO 
 Maximum Displacement     0.002140     0.000060     NO 
 RMS     Displacement     0.001128     0.000040     NO 
 Predicted change in Energy=-3.078748D-06
 Lowest energy point so far.  Saving SCF results.
 GradGradGradGradGradGradGradGradGradGradGradGradGradGradGradGradGradGrad

 Leave Link  103 at Tue Oct 15 17:31:57 2019, MaxMem= 13421772800 cpu:               4.6 elap:               0.2
 (Enter /soft/gaussian/16-a.03/AVX2/g16/l202.exe)
                          Input orientation:                          
 ---------------------------------------------------------------------
 Center     Atomic      Atomic             Coordinates (Angstroms)
 Number     Number       Type             X           Y           Z
 ---------------------------------------------------------------------
      1          6           0       -0.000011   -0.000007   -0.000010
      2          1           0       -0.000012   -0.000011    1.093288
      3          1           0        1.030757    0.000030   -0.364449
      4          1           0       -0.515446    0.892638   -0.364444
      5          1           0       -0.515363   -0.892701   -0.364452
 ---------------------------------------------------------------------
                    Distance matrix (angstroms):
                    1          2          3          4          5
     1  C    0.000000
     2  H    1.093298   0.000000
     3  H    1.093298   1.785352   0.000000
     4  H    1.093298   1.785351   1.785355   0.000000
     5  H    1.093301   1.785354   1.785344   1.785339   0.000000
 Stoichiometry    CH4
 Framework group  C1[X(CH4)]
 Deg. of freedom     9
 Full point group                 C1      NOp   1
 RotChk:  IX=3 Diff= 1.27D+00
 Largest Abelian subgroup         C1      NOp   1
 Largest concise Abelian subgroup C1      NOp   1
                         Standard orientation:                         
 ---------------------------------------------------------------------
 Center     Atomic      Atomic             Coordinates (Angstroms)
 Number     Number       Type             X           Y           Z
 ---------------------------------------------------------------------
      1          6           0        0.000003    0.000000   -0.000002
      2          1           0        0.902119    0.568405    0.241664
      3          1           0        0.281117   -0.954915   -0.452120
      4          1           0       -0.612397    0.570153   -0.703702
      5          1           0       -0.570854   -0.183644    0.914167
 ---------------------------------------------------------------------
 Rotational constants (GHZ):         157.3212968         157.3210977         157.3194155
 Leave Link  202 at Tue Oct 15 17:31:57 2019, MaxMem= 13421772800 cpu:               0.5 elap:               0.0
 (Enter /soft/gaussian/16-a.03/AVX2/g16/l301.exe)
 Standard basis: 6-31G(d) (6D, 7F)
 Ernie: Thresh=  0.10000D-02 Tol=  0.10000D-05 Strict=F.
 There are    23 symmetry adapted cartesian basis functions of A   symmetry.
 There are    23 symmetry adapted basis functions of A   symmetry.
    23 basis functions,    44 primitive gaussians,    23 cartesian basis functions
     5 alpha electrons        5 beta electrons
       nuclear repulsion energy        13.3948511209 Hartrees.
 IExCor=  402 DFT=T Ex+Corr=B3LYP ExCW=0 ScaHFX=  0.200000
 ScaDFX=  0.800000  0.720000  1.000000  0.810000 ScalE2=  1.000000  1.000000
 IRadAn=      5 IRanWt=     -1 IRanGd=            0 ICorTp=0 IEmpDi=  4
 NAtoms=    5 NActive=    5 NUniq=    5 SFac= 1.00D+00 NAtFMM=   60 NAOKFM=F Big=F
 Integral buffers will be    131072 words long.
 Raffenetti 2 integral format.
 Two-electron integral symmetry is turned on.
 Leave Link  301 at Tue Oct 15 17:31:57 2019, MaxMem= 13421772800 cpu:               1.8 elap:               0.1
 (Enter /soft/gaussian/16-a.03/AVX2/g16/l302.exe)
 NPDir=0 NMtPBC=     1 NCelOv=     1 NCel=       1 NClECP=     1 NCelD=      1
         NCelK=      1 NCelE2=     1 NClLst=     1 CellRange=     0.0.
 One-electron integrals computed using PRISM.
 One-electron integral symmetry used in STVInt
 NBasis=    23 RedAO= T EigKep=  1.80D-02  NBF=    23
 NBsUse=    23 1.00D-06 EigRej= -1.00D+00 NBFU=    23
 Precomputing XC quadrature grid using
 IXCGrd= 4 IRadAn=           5 IRanWt=          -1 IRanGd=           0 AccXCQ= 0.00D+00.
 Generated NRdTot=       0 NPtTot=           0 NUsed=           0 NTot=          32
 NSgBfM=    23    23    23    23    23 MxSgAt=     5 MxSgA2=     5.
 Leave Link  302 at Tue Oct 15 17:31:57 2019, MaxMem= 13421772800 cpu:               4.2 elap:               0.1
 (Enter /soft/gaussian/16-a.03/AVX2/g16/l303.exe)
 DipDrv:  MaxL=1.
 Leave Link  303 at Tue Oct 15 17:31:57 2019, MaxMem= 13421772800 cpu:               0.8 elap:               0.0
 (Enter /soft/gaussian/16-a.03/AVX2/g16/l401.exe)
 Initial guess from the checkpoint file:  "/scratch/Gau-184337.chk"
 B after Tr=    -0.000000    0.000000    0.000000
         Rot=    0.894338    0.170075   -0.042199    0.411648 Ang=  53.15 deg.
 Guess basis will be translated and rotated to current coordinates.
 JPrj=2 DoOrth=T DoCkMO=T.
 Leave Link  401 at Tue Oct 15 17:31:57 2019, MaxMem= 13421772800 cpu:               2.6 elap:               0.1
 (Enter /soft/gaussian/16-a.03/AVX2/g16/l502.exe)
 Keep R1 ints in memory in canonical form, NReq=31068512.
 FoFCou: FMM=F IPFlag=           0 FMFlag=           0 FMFlg1=           0
         NFxFlg=           0 DoJE=F BraDBF=F KetDBF=F FulRan=T
         wScrn=  0.000000 ICntrl=       600 IOpCl=  0 I1Cent=           0 NGrid=           0
         NMat0=    1 NMatS0=    276 NMatT0=    0 NMatD0=    1 NMtDS0=    0 NMtDT0=    0
 Symmetry not used in FoFCou.
 Two-electron integral symmetry not used.
 Closed shell SCF:
 Using DIIS extrapolation, IDIIS=  1040.
 NGot= 13421772800 LenX= 13421732188 LenY= 13421731218
 Requested convergence on RMS density matrix=1.00D-08 within 128 cycles.
 Requested convergence on MAX density matrix=1.00D-06.
 Requested convergence on             energy=1.00D-06.
 No special actions if energy rises.

 Cycle   1  Pass 1  IDiag  1:
 E= -40.5183826413071    
 DIIS: error= 1.68D-04 at cycle   1 NSaved=   1.
 NSaved= 1 IEnMin= 1 EnMin= -40.5183826413071     IErMin= 1 ErrMin= 1.68D-04
 ErrMax= 1.68D-04  0.00D+00 EMaxC= 1.00D-01 BMatC= 5.41D-07 BMatP= 5.41D-07
 IDIUse=3 WtCom= 9.98D-01 WtEn= 1.68D-03
 Coeff-Com:  0.100D+01
 Coeff-En:   0.100D+01
 Coeff:      0.100D+01
 Gap=     2.232 Goal=   None    Shift=    0.000
 RMSDP=5.10D-05 MaxDP=3.75D-04              OVMax= 4.41D-04

 Cycle   2  Pass 1  IDiag  1:
 E= -40.5183827581869     Delta-E=       -0.000000116880 Rises=F Damp=F
 DIIS: error= 1.77D-04 at cycle   2 NSaved=   2.
 NSaved= 2 IEnMin= 2 EnMin= -40.5183827581869     IErMin= 1 ErrMin= 1.68D-04
 ErrMax= 1.77D-04  0.00D+00 EMaxC= 1.00D-01 BMatC= 5.39D-07 BMatP= 5.41D-07
 IDIUse=3 WtCom= 9.98D-01 WtEn= 1.77D-03
 Coeff-Com:  0.499D+00 0.501D+00
 Coeff-En:   0.443D+00 0.557D+00
 Coeff:      0.499D+00 0.501D+00
 Gap=     0.507 Goal=   None    Shift=    0.000
 RMSDP=2.70D-05 MaxDP=2.01D-04 DE=-1.17D-07 OVMax= 2.35D-04

 Cycle   3  Pass 1  IDiag  1:
 E= -40.5183833043503     Delta-E=       -0.000000546163 Rises=F Damp=F
 DIIS: error= 1.49D-05 at cycle   3 NSaved=   3.
 NSaved= 3 IEnMin= 3 EnMin= -40.5183833043503     IErMin= 3 ErrMin= 1.49D-05
 ErrMax= 1.49D-05  0.00D+00 EMaxC= 1.00D-01 BMatC= 4.24D-09 BMatP= 5.39D-07
 IDIUse=1 WtCom= 1.00D+00 WtEn= 0.00D+00
 Coeff-Com:  0.119D-01 0.873D-01 0.901D+00
 Coeff:      0.119D-01 0.873D-01 0.901D+00
 Gap=     0.507 Goal=   None    Shift=    0.000
 RMSDP=1.85D-06 MaxDP=1.71D-05 DE=-5.46D-07 OVMax= 1.88D-05

 Cycle   4  Pass 1  IDiag  1:
 E= -40.5183833084079     Delta-E=       -0.000000004058 Rises=F Damp=F
 DIIS: error= 4.93D-07 at cycle   4 NSaved=   4.
 NSaved= 4 IEnMin= 4 EnMin= -40.5183833084079     IErMin= 4 ErrMin= 4.93D-07
 ErrMax= 4.93D-07  0.00D+00 EMaxC= 1.00D-01 BMatC= 3.63D-12 BMatP= 4.24D-09
 IDIUse=1 WtCom= 1.00D+00 WtEn= 0.00D+00
 Coeff-Com: -0.187D-02 0.134D-02 0.725D-02 0.993D+00
 Coeff:     -0.187D-02 0.134D-02 0.725D-02 0.993D+00
 Gap=     0.507 Goal=   None    Shift=    0.000
 RMSDP=9.32D-08 MaxDP=6.09D-07 DE=-4.06D-09 OVMax= 8.23D-07

 Cycle   5  Pass 1  IDiag  1:
 E= -40.5183833084127     Delta-E=       -0.000000000005 Rises=F Damp=F
 DIIS: error= 3.08D-08 at cycle   5 NSaved=   5.
 NSaved= 5 IEnMin= 5 EnMin= -40.5183833084127     IErMin= 5 ErrMin= 3.08D-08
 ErrMax= 3.08D-08  0.00D+00 EMaxC= 1.00D-01 BMatC= 2.37D-14 BMatP= 3.63D-12
 IDIUse=1 WtCom= 1.00D+00 WtEn= 0.00D+00
 Coeff-Com: -0.193D-03-0.827D-04 0.745D-04 0.956D-01 0.905D+00
 Coeff:     -0.193D-03-0.827D-04 0.745D-04 0.956D-01 0.905D+00
 Gap=     0.507 Goal=   None    Shift=    0.000
 RMSDP=6.31D-09 MaxDP=3.65D-08 DE=-4.81D-12 OVMax= 5.63D-08

 SCF Done:  E(RB3LYP) =  -40.5183833084     A.U. after    5 cycles
            NFock=  5  Conv=0.63D-08     -V/T= 2.0112
 KE= 4.007091202172D+01 PE=-1.198291268084D+02 EE= 2.584498035741D+01
 Leave Link  502 at Tue Oct 15 17:31:58 2019, MaxMem= 13421772800 cpu:               7.2 elap:               0.2
 (Enter /soft/gaussian/16-a.03/AVX2/g16/l701.exe)
 ... and contract with generalized density number  0.
 Compute integral first derivatives.
 Leave Link  701 at Tue Oct 15 17:31:58 2019, MaxMem= 13421772800 cpu:               3.8 elap:               0.1
 (Enter /soft/gaussian/16-a.03/AVX2/g16/l702.exe)
 L702 exits ... SP integral derivatives will be done elsewhere.
 Leave Link  702 at Tue Oct 15 17:31:58 2019, MaxMem= 13421772800 cpu:               0.8 elap:               0.0
 (Enter /soft/gaussian/16-a.03/AVX2/g16/l703.exe)
 Integral derivatives from FoFJK, PRISM(SPDF).
 Compute integral first derivatives, UseDBF=F ICtDFT=           0.
 Calling FoFJK, ICntrl=      2127 FMM=F ISym2X=0 I1Cent= 0 IOpClX= 0 NMat=1 NMatS=1 NMatT=0.
 FoFJK:  IHMeth= 1 ICntrl=    2127 DoSepK=F KAlg= 0 I1Cent=           0 FoldK=F
 IRaf=         0 NMat=       1 IRICut=       1 DoRegI=T DoRafI=F ISym2E= 0 IDoP0=0 IntGTp=1.
 FoFCou: FMM=F IPFlag=           0 FMFlag=      100000 FMFlg1=         800
         NFxFlg=           0 DoJE=F BraDBF=F KetDBF=F FulRan=T
         wScrn=  0.000000 ICntrl=      2127 IOpCl=  0 I1Cent=           0 NGrid=           0
         NMat0=    1 NMatS0=      1 NMatT0=    0 NMatD0=    1 NMtDS0=    0 NMtDT0=    0
 Symmetry not used in FoFCou.
 Leave Link  703 at Tue Oct 15 17:31:58 2019, MaxMem= 13421772800 cpu:               6.7 elap:               0.2
 (Enter /soft/gaussian/16-a.03/AVX2/g16/l716.exe)
 Dipole        =-2.65720378D-06-3.38872577D-07 1.07166306D-06
 ***** Axes restored to original set *****
 -------------------------------------------------------------------
 Center     Atomic                   Forces (Hartrees/Bohr)
 Number     Number              X              Y              Z
 -------------------------------------------------------------------
      1        6          -0.000002959   -0.000002286   -0.000002186
      2        1          -0.000000030   -0.000000078   -0.000023026
      3        1          -0.000021076    0.000001007    0.000008016
      4        1           0.000012126   -0.000017882    0.000008032
      5        1           0.000011939    0.000019239    0.000009165
 -------------------------------------------------------------------
 Cartesian Forces:  Max     0.000023026 RMS     0.000012073
 Leave Link  716 at Tue Oct 15 17:31:58 2019, MaxMem= 13421772800 cpu:               1.0 elap:               0.1
 (Enter /soft/gaussian/16-a.03/AVX2/g16/l103.exe)

 GradGradGradGradGradGradGradGradGradGradGradGradGradGradGradGradGradGrad
 Berny optimization.
 Using GEDIIS/GDIIS optimizer.
 FormGI is forming the generalized inverse of G from B-inverse, IUseBI=4.
 Internal  Forces:  Max     0.000024392 RMS     0.000012450
 Search for a local minimum.
 Step number   2 out of a maximum of   24
 All quantities printed in internal units (Hartrees-Bohrs-Radians)
 RMS Force = .12450D-04 SwitMx=.10000D-02 MixMth= 2
 Mixed Optimization -- En-DIIS/RFO-DIIS
 Swapping is turned off.
 Update second derivatives using D2CorX and points    1    2
 DE= -3.00D-06 DEPred=-3.08D-06 R= 9.75D-01
 TightC=F SS=  1.41D+00  RLast= 4.22D-03 DXNew= 5.0454D-01 1.2666D-02
 Trust test= 9.75D-01 RLast= 4.22D-03 DXMaxT set to 3.00D-01
 The second derivative matrix:
                          R1        R2        R3        R4        A1
           R1           0.34835
           R2           0.00265   0.34821
           R3           0.00271   0.00265   0.34830
           R4           0.00287   0.00281   0.00286   0.34864
           A1           0.00010   0.00010   0.00010   0.00010   0.16000
           A2          -0.00007  -0.00006  -0.00006  -0.00006  -0.00000
           A3          -0.00017  -0.00017  -0.00016  -0.00017  -0.00000
           A4           0.00054   0.00053   0.00052   0.00053  -0.00000
           A5          -0.00012  -0.00012  -0.00012  -0.00012   0.00000
           A6          -0.00029  -0.00029  -0.00028  -0.00028   0.00000
           D1          -0.00021  -0.00020  -0.00020  -0.00020  -0.00000
           D2          -0.00014  -0.00014  -0.00014  -0.00014  -0.00000
           D3           0.00014   0.00013   0.00013   0.00013   0.00000
           D4           0.00028   0.00027   0.00027   0.00027   0.00000
                          A2        A3        A4        A5        A6
           A2           0.16000
           A3           0.00000   0.16000
           A4           0.00000  -0.00000   0.15999
           A5          -0.00000  -0.00000   0.00000   0.16000
           A6          -0.00000   0.00000   0.00001  -0.00000   0.15999
           D1          -0.00000   0.00000   0.00000  -0.00000  -0.00000
           D2          -0.00000   0.00000   0.00000  -0.00000  -0.00000
           D3           0.00000  -0.00000  -0.00000   0.00000   0.00000
           D4           0.00000  -0.00000  -0.00000   0.00000   0.00000
                          D1        D2        D3        D4
           D1           0.00230
           D2           0.00000   0.00230
           D3          -0.00000  -0.00000   0.00230
           D4          -0.00000  -0.00000   0.00000   0.00230
 ITU=  1  0
     Eigenvalues ---    0.05082   0.05715   0.08640   0.15999   0.16000
     Eigenvalues ---    0.34560   0.34560   0.34564   0.35666
 En-DIIS/RFO-DIIS/Sim-DIIS IScMMF=       -3 using points:     2    1
 RFO step:  Lambda= 0.00000000D+00.
 NNeg= 0 NGDIIS= 2 SimSw=  2.50D-03 Rises=F DC= -3.00D-06 SmlDif=  1.00D-05
 NRisDI= 0 DoIntr=F SqrtH=F CThrHd= 10.0 CDAdj=  3.0
 RMS Error=  0.3542032077D-04 NUsed= 2 OKEnD=F EnDIS=F
 InvSVX:  RCond= 2.01D-05 Info=           0 Equed=N FErr=  9.22D-16 BErr=  1.03D-16
 DidBck=F Rises=F RFO-DIIS coefs:    0.96927    0.03073
 Iteration  1 RMS(Cart)=  0.00003520 RMS(Int)=  0.00000000
 Iteration  2 RMS(Cart)=  0.00000000 RMS(Int)=  0.00000000
 ITry= 1 IFail=0 DXMaxC= 6.95D-05 DCOld= 1.00D+10 DXMaxT= 3.00D-01 DXLimC= 3.00D+00 Rises=F
 Variable       Old X    -DE/DX   Delta X   Delta X   Delta X     New X
                                 (Linear)    (Quad)   (Total)
    R1        2.06603  -0.00002  -0.00007   0.00000  -0.00006   2.06597
    R2        2.06603  -0.00002  -0.00006   0.00000  -0.00006   2.06597
    R3        2.06603  -0.00002  -0.00006  -0.00000  -0.00006   2.06597
    R4        2.06604  -0.00002  -0.00006  -0.00000  -0.00007   2.06597
    A1        1.91064   0.00000  -0.00000  -0.00000  -0.00001   1.91064
    A2        1.91064  -0.00000  -0.00000  -0.00000  -0.00000   1.91063
    A3        1.91064  -0.00000   0.00000  -0.00001  -0.00000   1.91063
    A4        1.91064  -0.00000   0.00000  -0.00001  -0.00001   1.91064
    A5        1.91062   0.00000  -0.00000   0.00001   0.00001   1.91063
    A6        1.91061   0.00000  -0.00000   0.00002   0.00001   1.91063
    D1        2.09441  -0.00000   0.00000  -0.00001  -0.00001   2.09440
    D2       -2.09440   0.00000   0.00000   0.00001   0.00001  -2.09440
    D3        2.09439   0.00000  -0.00000   0.00000   0.00000   2.09439
    D4       -2.09439  -0.00000  -0.00000  -0.00000  -0.00000  -2.09439
         Item               Value     Threshold  Converged?
 Maximum Force            0.000024     0.000015     NO 
 RMS     Force            0.000012     0.000010     NO 
 Maximum Displacement     0.000070     0.000060     NO 
 RMS     Displacement     0.000035     0.000040     YES
 Predicted change in Energy=-3.060371D-09
 Lowest energy point so far.  Saving SCF results.
 GradGradGradGradGradGradGradGradGradGradGradGradGradGradGradGradGradGrad

 Leave Link  103 at Tue Oct 15 17:31:58 2019, MaxMem= 13421772800 cpu:               0.5 elap:               0.0
 (Enter /soft/gaussian/16-a.03/AVX2/g16/l202.exe)
                          Input orientation:                          
 ---------------------------------------------------------------------
 Center     Atomic      Atomic             Coordinates (Angstroms)
 Number     Number       Type             X           Y           Z
 ---------------------------------------------------------------------
      1          6           0       -0.000014   -0.000009   -0.000012
      2          1           0       -0.000013   -0.000013    1.093252
      3          1           0        1.030724    0.000033   -0.364437
      4          1           0       -0.515425    0.892614   -0.364432
      5          1           0       -0.515346   -0.892677   -0.364437
 ---------------------------------------------------------------------
                    Distance matrix (angstroms):
                    1          2          3          4          5
     1  C    0.000000
     2  H    1.093264   0.000000
     3  H    1.093264   1.785294   0.000000
     4  H    1.093264   1.785294   1.785295   0.000000
     5  H    1.093265   1.785294   1.785291   1.785291   0.000000
 Stoichiometry    CH4
 Framework group  C1[X(CH4)]
 Deg. of freedom     9
 Full point group                 C1      NOp   1
 RotChk:  IX=0 Diff= 1.67D+00
 Largest Abelian subgroup         C1      NOp   1
 Largest concise Abelian subgroup C1      NOp   1
                         Standard orientation:                         
 ---------------------------------------------------------------------
 Center     Atomic      Atomic             Coordinates (Angstroms)
 Number     Number       Type             X           Y           Z
 ---------------------------------------------------------------------
      1          6           0       -0.000000    0.000001   -0.000001
      2          1           0       -0.235591    1.052225    0.180404
      3          1           0        0.935631   -0.073002   -0.560796
      4          1           0       -0.807023   -0.460564   -0.576040
      5          1           0        0.106983   -0.518663    0.956436
 ---------------------------------------------------------------------
 Rotational constants (GHZ):         157.3306932         157.3306501         157.3302271
 Leave Link  202 at Tue Oct 15 17:31:58 2019, MaxMem= 13421772800 cpu:               0.5 elap:               0.0
 (Enter /soft/gaussian/16-a.03/AVX2/g16/l301.exe)
 Standard basis: 6-31G(d) (6D, 7F)
 Ernie: Thresh=  0.10000D-02 Tol=  0.10000D-05 Strict=F.
 There are    23 symmetry adapted cartesian basis functions of A   symmetry.
 There are    23 symmetry adapted basis functions of A   symmetry.
    23 basis functions,    44 primitive gaussians,    23 cartesian basis functions
     5 alpha electrons        5 beta electrons
       nuclear repulsion energy        13.3952734337 Hartrees.
 IExCor=  402 DFT=T Ex+Corr=B3LYP ExCW=0 ScaHFX=  0.200000
 ScaDFX=  0.800000  0.720000  1.000000  0.810000 ScalE2=  1.000000  1.000000
 IRadAn=      5 IRanWt=     -1 IRanGd=            0 ICorTp=0 IEmpDi=  4
 NAtoms=    5 NActive=    5 NUniq=    5 SFac= 1.00D+00 NAtFMM=   60 NAOKFM=F Big=F
 Integral buffers will be    131072 words long.
 Raffenetti 2 integral format.
 Two-electron integral symmetry is turned on.
 Leave Link  301 at Tue Oct 15 17:31:58 2019, MaxMem= 13421772800 cpu:               1.8 elap:               0.1
 (Enter /soft/gaussian/16-a.03/AVX2/g16/l302.exe)
 NPDir=0 NMtPBC=     1 NCelOv=     1 NCel=       1 NClECP=     1 NCelD=      1
         NCelK=      1 NCelE2=     1 NClLst=     1 CellRange=     0.0.
 One-electron integrals computed using PRISM.
 One-electron integral symmetry used in STVInt
 NBasis=    23 RedAO= T EigKep=  1.80D-02  NBF=    23
 NBsUse=    23 1.00D-06 EigRej= -1.00D+00 NBFU=    23
 Precomputing XC quadrature grid using
 IXCGrd= 4 IRadAn=           5 IRanWt=          -1 IRanGd=           0 AccXCQ= 0.00D+00.
 Generated NRdTot=       0 NPtTot=           0 NUsed=           0 NTot=          32
 NSgBfM=    23    23    23    23    23 MxSgAt=     5 MxSgA2=     5.
 Leave Link  302 at Tue Oct 15 17:31:58 2019, MaxMem= 13421772800 cpu:               4.2 elap:               0.1
 (Enter /soft/gaussian/16-a.03/AVX2/g16/l303.exe)
 DipDrv:  MaxL=1.
 Leave Link  303 at Tue Oct 15 17:31:59 2019, MaxMem= 13421772800 cpu:               0.8 elap:               0.0
 (Enter /soft/gaussian/16-a.03/AVX2/g16/l401.exe)
 Initial guess from the checkpoint file:  "/scratch/Gau-184337.chk"
 B after Tr=    -0.000000    0.000000    0.000000
         Rot=    0.807301    0.000635   -0.072649   -0.585651 Ang=  72.33 deg.
 Guess basis will be translated and rotated to current coordinates.
 JPrj=2 DoOrth=T DoCkMO=T.
 Leave Link  401 at Tue Oct 15 17:31:59 2019, MaxMem= 13421772800 cpu:               2.6 elap:               0.1
 (Enter /soft/gaussian/16-a.03/AVX2/g16/l502.exe)
 Keep R1 ints in memory in canonical form, NReq=31068512.
 FoFCou: FMM=F IPFlag=           0 FMFlag=           0 FMFlg1=           0
         NFxFlg=           0 DoJE=F BraDBF=F KetDBF=F FulRan=T
         wScrn=  0.000000 ICntrl=       600 IOpCl=  0 I1Cent=           0 NGrid=           0
         NMat0=    1 NMatS0=    276 NMatT0=    0 NMatD0=    1 NMtDS0=    0 NMtDT0=    0
 Symmetry not used in FoFCou.
 Two-electron integral symmetry not used.
 Closed shell SCF:
 Using DIIS extrapolation, IDIIS=  1040.
 NGot= 13421772800 LenX= 13421732188 LenY= 13421731218
 Requested convergence on RMS density matrix=1.00D-08 within 128 cycles.
 Requested convergence on MAX density matrix=1.00D-06.
 Requested convergence on             energy=1.00D-06.
 No special actions if energy rises.

 Cycle   1  Pass 1  IDiag  1:
 E= -40.5183832721296    
 DIIS: error= 5.37D-06 at cycle   1 NSaved=   1.
 NSaved= 1 IEnMin= 1 EnMin= -40.5183832721296     IErMin= 1 ErrMin= 5.37D-06
 ErrMax= 5.37D-06  0.00D+00 EMaxC= 1.00D-01 BMatC= 5.20D-10 BMatP= 5.20D-10
 IDIUse=1 WtCom= 1.00D+00 WtEn= 0.00D+00
 Coeff-Com:  0.100D+01
 Coeff:      0.100D+01
 Gap=     2.235 Goal=   None    Shift=    0.000
 RMSDP=1.58D-06 MaxDP=1.21D-05              OVMax= 1.43D-05

 Cycle   2  Pass 1  IDiag  1:
 E= -40.5183832722484     Delta-E=       -0.000000000119 Rises=F Damp=F
 DIIS: error= 5.49D-06 at cycle   2 NSaved=   2.
 NSaved= 2 IEnMin= 2 EnMin= -40.5183832722484     IErMin= 1 ErrMin= 5.37D-06
 ErrMax= 5.49D-06  0.00D+00 EMaxC= 1.00D-01 BMatC= 5.13D-10 BMatP= 5.20D-10
 IDIUse=1 WtCom= 1.00D+00 WtEn= 0.00D+00
 Coeff-Com:  0.498D+00 0.502D+00
 Coeff:      0.498D+00 0.502D+00
 Gap=     0.507 Goal=   None    Shift=    0.000
 RMSDP=8.36D-07 MaxDP=6.22D-06 DE=-1.19D-10 OVMax= 7.29D-06

 Cycle   3  Pass 1  IDiag  1:
 E= -40.5183832727684     Delta-E=       -0.000000000520 Rises=F Damp=F
 DIIS: error= 4.69D-07 at cycle   3 NSaved=   3.
 NSaved= 3 IEnMin= 3 EnMin= -40.5183832727684     IErMin= 3 ErrMin= 4.69D-07
 ErrMax= 4.69D-07  0.00D+00 EMaxC= 1.00D-01 BMatC= 4.29D-12 BMatP= 5.13D-10
 IDIUse=1 WtCom= 1.00D+00 WtEn= 0.00D+00
 Coeff-Com:  0.115D-01 0.892D-01 0.899D+00
 Coeff:      0.115D-01 0.892D-01 0.899D+00
 Gap=     0.507 Goal=   None    Shift=    0.000
 RMSDP=5.94D-08 MaxDP=5.66D-07 DE=-5.20D-10 OVMax= 5.99D-07

 Cycle   4  Pass 1  IDiag  1:
 E= -40.5183832727725     Delta-E=       -0.000000000004 Rises=F Damp=F
 DIIS: error= 1.63D-08 at cycle   4 NSaved=   4.
 NSaved= 4 IEnMin= 4 EnMin= -40.5183832727725     IErMin= 4 ErrMin= 1.63D-08
 ErrMax= 1.63D-08  0.00D+00 EMaxC= 1.00D-01 BMatC= 4.54D-15 BMatP= 4.29D-12
 IDIUse=1 WtCom= 1.00D+00 WtEn= 0.00D+00
 Coeff-Com: -0.184D-02 0.241D-02 0.189D-01 0.981D+00
 Coeff:     -0.184D-02 0.241D-02 0.189D-01 0.981D+00
 Gap=     0.507 Goal=   None    Shift=    0.000
 RMSDP=3.25D-09 MaxDP=2.53D-08 DE=-4.08D-12 OVMax= 3.48D-08

 SCF Done:  E(RB3LYP) =  -40.5183832728     A.U. after    4 cycles
            NFock=  4  Conv=0.33D-08     -V/T= 2.0112
 KE= 4.007108830653D+01 PE=-1.198300939970D+02 EE= 2.584534898399D+01
 Leave Link  502 at Tue Oct 15 17:31:59 2019, MaxMem= 13421772800 cpu:               6.9 elap:               0.2
 (Enter /soft/gaussian/16-a.03/AVX2/g16/l701.exe)
 ... and contract with generalized density number  0.
 Compute integral first derivatives.
 Leave Link  701 at Tue Oct 15 17:31:59 2019, MaxMem= 13421772800 cpu:               4.0 elap:               0.1
 (Enter /soft/gaussian/16-a.03/AVX2/g16/l702.exe)
 L702 exits ... SP integral derivatives will be done elsewhere.
 Leave Link  702 at Tue Oct 15 17:31:59 2019, MaxMem= 13421772800 cpu:               0.8 elap:               0.0
 (Enter /soft/gaussian/16-a.03/AVX2/g16/l703.exe)
 Integral derivatives from FoFJK, PRISM(SPDF).
 Compute integral first derivatives, UseDBF=F ICtDFT=           0.
 Calling FoFJK, ICntrl=      2127 FMM=F ISym2X=0 I1Cent= 0 IOpClX= 0 NMat=1 NMatS=1 NMatT=0.
 FoFJK:  IHMeth= 1 ICntrl=    2127 DoSepK=F KAlg= 0 I1Cent=           0 FoldK=F
 IRaf=         0 NMat=       1 IRICut=       1 DoRegI=T DoRafI=F ISym2E= 0 IDoP0=0 IntGTp=1.
 FoFCou: FMM=F IPFlag=           0 FMFlag=      100000 FMFlg1=         800
         NFxFlg=           0 DoJE=F BraDBF=F KetDBF=F FulRan=T
         wScrn=  0.000000 ICntrl=      2127 IOpCl=  0 I1Cent=           0 NGrid=           0
         NMat0=    1 NMatS0=      1 NMatT0=    0 NMatD0=    1 NMtDS0=    0 NMtDT0=    0
 Symmetry not used in FoFCou.
 Leave Link  703 at Tue Oct 15 17:31:59 2019, MaxMem= 13421772800 cpu:               6.8 elap:               0.2
 (Enter /soft/gaussian/16-a.03/AVX2/g16/l716.exe)
 Dipole        = 9.39929589D-08-5.37390240D-07 5.68584789D-07
 ***** Axes restored to original set *****
 -------------------------------------------------------------------
 Center     Atomic                   Forces (Hartrees/Bohr)
 Number     Number              X              Y              Z
 -------------------------------------------------------------------
      1        6          -0.000000733   -0.000000611   -0.000001156
      2        1           0.000000055    0.000000151    0.000000221
      3        1           0.000000165    0.000000436    0.000000299
      4        1           0.000000369   -0.000000028    0.000000118
      5        1           0.000000144    0.000000051    0.000000519
 -------------------------------------------------------------------
 Cartesian Forces:  Max     0.000001156 RMS     0.000000453
 Leave Link  716 at Tue Oct 15 17:31:59 2019, MaxMem= 13421772800 cpu:               0.8 elap:               0.0
 (Enter /soft/gaussian/16-a.03/AVX2/g16/l103.exe)

 GradGradGradGradGradGradGradGradGradGradGradGradGradGradGradGradGradGrad
 Berny optimization.
 Using GEDIIS/GDIIS optimizer.
 FormGI is forming the generalized inverse of G from B-inverse, IUseBI=4.
 Internal  Forces:  Max     0.000000425 RMS     0.000000256
 Search for a local minimum.
 Step number   3 out of a maximum of   24
 All quantities printed in internal units (Hartrees-Bohrs-Radians)
 RMS Force = .25614D-06 SwitMx=.10000D-02 MixMth= 2
 Mixed Optimization -- En-DIIS/RFO-DIIS
 Swapping is turned off.
 Update second derivatives using D2CorX and points    1    2    3
 DE=  3.56D-08 DEPred=-3.06D-09 R=-1.16D+01
 Trust test=-1.16D+01 RLast= 1.33D-04 DXMaxT set to 1.50D-01
 The second derivative matrix:
                          R1        R2        R3        R4        A1
           R1           0.35053
           R2           0.00417   0.34911
           R3           0.00314   0.00248   0.34703
           R4           0.00321   0.00251   0.00139   0.34694
           A1          -0.00368  -0.00360  -0.00368  -0.00391   0.15987
           A2          -0.00064  -0.00063  -0.00066  -0.00070  -0.00007
           A3           0.00024   0.00021   0.00018   0.00020  -0.00012
           A4          -0.00142  -0.00142  -0.00151  -0.00164  -0.00023
           A5           0.00265   0.00260   0.00267   0.00285   0.00015
           A6           0.00286   0.00284   0.00299   0.00321   0.00039
           D1           0.00190   0.00185   0.00187   0.00200  -0.00001
           D2          -0.00050  -0.00049  -0.00049  -0.00051   0.00001
           D3          -0.00048  -0.00047  -0.00048  -0.00051  -0.00000
           D4           0.00002   0.00002   0.00001  -0.00001  -0.00001
                          A2        A3        A4        A5        A6
           A2           0.15998
           A3          -0.00001   0.16003
           A4          -0.00006  -0.00005   0.15978
           A5           0.00006   0.00008   0.00020   0.15985
           A6           0.00010   0.00007   0.00036  -0.00034   0.15941
           D1           0.00003   0.00007   0.00009  -0.00003  -0.00015
           D2          -0.00000  -0.00001  -0.00001  -0.00000   0.00002
           D3          -0.00001  -0.00002  -0.00003   0.00001   0.00005
           D4          -0.00001  -0.00001  -0.00002   0.00001   0.00003
                          D1        D2        D3        D4
           D1           0.00235
           D2          -0.00001   0.00230
           D3          -0.00001   0.00000   0.00230
           D4           0.00000  -0.00000  -0.00000   0.00230
 ITU= -1  1  0
     Eigenvalues ---    0.05075   0.05715   0.08624   0.15943   0.16002
     Eigenvalues ---    0.34481   0.34560   0.34562   0.35773
 En-DIIS/RFO-DIIS/Sim-DIIS IScMMF=       -3 using points:     3    2    1
 RFO step:  Lambda= 0.00000000D+00.
 NNeg= 0 NGDIIS= 3 SimSw=  2.50D-03 Rises=F DC=  3.56D-08 SmlDif=  1.00D-05
 NRisDI= 0 DoIntr=F SqrtH=F CThrHd= 10.0 CDAdj=  3.0
 RMS Error=  0.2418199631D-05 NUsed= 3 OKEnD=F EnDIS=F
 InvSVX:  RCond= 6.31D-11 Info=           0 Equed=N FErr=  2.87D-14 BErr=  8.37D-17
 DIIS inversion failure, remove point   3.
 InvSVX:  RCond= 4.39D-09 Info=           0 Equed=N FErr=  9.26D-16 BErr=  7.31D-17
 DIIS inversion failure, remove point   2.
 Use linear search instead of GDIIS.
 RFO step:  Lambda= 0.00000000D+00 EMin= 5.07498756D-02
 Quartic linear search produced a step of -0.97365.
 Iteration  1 RMS(Cart)=  0.00003829 RMS(Int)=  0.00000000
 Iteration  2 RMS(Cart)=  0.00000000 RMS(Int)=  0.00000000
 ITry= 1 IFail=0 DXMaxC= 8.24D-05 DCOld= 1.00D+10 DXMaxT= 1.50D-01 DXLimC= 3.00D+00 Rises=F
 Variable       Old X    -DE/DX   Delta X   Delta X   Delta X     New X
                                 (Linear)    (Quad)   (Total)
    R1        2.06597   0.00000   0.00006  -0.00000   0.00006   2.06603
    R2        2.06597   0.00000   0.00006  -0.00000   0.00006   2.06603
    R3        2.06597  -0.00000   0.00006  -0.00000   0.00006   2.06603
    R4        2.06597  -0.00000   0.00007  -0.00000   0.00007   2.06604
    A1        1.91064  -0.00000   0.00001   0.00004   0.00005   1.91068
    A2        1.91063  -0.00000   0.00000   0.00000   0.00000   1.91064
    A3        1.91063  -0.00000   0.00000  -0.00000   0.00000   1.91064
    A4        1.91064  -0.00000   0.00001   0.00001   0.00002   1.91065
    A5        1.91063   0.00000  -0.00001  -0.00001  -0.00002   1.91061
    A6        1.91063   0.00000  -0.00001  -0.00003  -0.00005   1.91058
    D1        2.09440  -0.00000   0.00001   0.00006   0.00007   2.09447
    D2       -2.09440   0.00000  -0.00001  -0.00004  -0.00005  -2.09444
    D3        2.09439  -0.00000  -0.00000  -0.00002  -0.00002   2.09437
    D4       -2.09439  -0.00000   0.00000   0.00002   0.00002  -2.09437
         Item               Value     Threshold  Converged?
 Maximum Force            0.000000     0.000015     YES
 RMS     Force            0.000000     0.000010     YES
 Maximum Displacement     0.000082     0.000060     NO 
 RMS     Displacement     0.000038     0.000040     YES
 Predicted change in Energy=-3.221061D-09
 GradGradGradGradGradGradGradGradGradGradGradGradGradGradGradGradGradGrad

 Leave Link  103 at Tue Oct 15 17:31:59 2019, MaxMem= 13421772800 cpu:               0.6 elap:               0.0
 (Enter /soft/gaussian/16-a.03/AVX2/g16/l202.exe)
                          Input orientation:                          
 ---------------------------------------------------------------------
 Center     Atomic      Atomic             Coordinates (Angstroms)
 Number     Number       Type             X           Y           Z
 ---------------------------------------------------------------------
      1          6           0       -0.000001   -0.000004   -0.000001
      2          1           0       -0.000023   -0.000012    1.093295
      3          1           0        1.030759    0.000024   -0.364462
      4          1           0       -0.515450    0.892628   -0.364445
      5          1           0       -0.515359   -0.892688   -0.364453
 ---------------------------------------------------------------------
                    Distance matrix (angstroms):
                    1          2          3          4          5
     1  C    0.000000
     2  H    1.093297   0.000000
     3  H    1.093296   1.785376   0.000000
     4  H    1.093297   1.785350   1.785358   0.000000
     5  H    1.093300   1.785350   1.785333   1.785316   0.000000
 Stoichiometry    CH4
 Framework group  C1[X(CH4)]
 Deg. of freedom     9
 Full point group                 C1      NOp   1
 RotChk:  IX=3 Diff= 1.08D+00
 Largest Abelian subgroup         C1      NOp   1
 Largest concise Abelian subgroup C1      NOp   1
                         Standard orientation:                         
 ---------------------------------------------------------------------
 Center     Atomic      Atomic             Coordinates (Angstroms)
 Number     Number       Type             X           Y           Z
 ---------------------------------------------------------------------
      1          6           0       -0.000002    0.000008   -0.000005
      2          1           0       -0.910692    0.604594    0.020388
      3          1           0        0.842653    0.620850   -0.315892
      4          1           0       -0.127295   -0.827029   -0.703642
      5          1           0        0.195346   -0.398465    0.999176
 ---------------------------------------------------------------------
 Rotational constants (GHZ):         157.3237638         157.3214224         157.3178651
 Leave Link  202 at Tue Oct 15 17:31:59 2019, MaxMem= 13421772800 cpu:               0.4 elap:               0.0
 (Enter /soft/gaussian/16-a.03/AVX2/g16/l301.exe)
 Standard basis: 6-31G(d) (6D, 7F)
 Ernie: Thresh=  0.10000D-02 Tol=  0.10000D-05 Strict=F.
 There are    23 symmetry adapted cartesian basis functions of A   symmetry.
 There are    23 symmetry adapted basis functions of A   symmetry.
    23 basis functions,    44 primitive gaussians,    23 cartesian basis functions
     5 alpha electrons        5 beta electrons
       nuclear repulsion energy        13.3948687341 Hartrees.
 IExCor=  402 DFT=T Ex+Corr=B3LYP ExCW=0 ScaHFX=  0.200000
 ScaDFX=  0.800000  0.720000  1.000000  0.810000 ScalE2=  1.000000  1.000000
 IRadAn=      5 IRanWt=     -1 IRanGd=            0 ICorTp=0 IEmpDi=  4
 NAtoms=    5 NActive=    5 NUniq=    5 SFac= 1.00D+00 NAtFMM=   60 NAOKFM=F Big=F
 Integral buffers will be    131072 words long.
 Raffenetti 2 integral format.
 Two-electron integral symmetry is turned on.
 Leave Link  301 at Tue Oct 15 17:32:00 2019, MaxMem= 13421772800 cpu:               1.8 elap:               0.1
 (Enter /soft/gaussian/16-a.03/AVX2/g16/l302.exe)
 NPDir=0 NMtPBC=     1 NCelOv=     1 NCel=       1 NClECP=     1 NCelD=      1
         NCelK=      1 NCelE2=     1 NClLst=     1 CellRange=     0.0.
 One-electron integrals computed using PRISM.
 One-electron integral symmetry used in STVInt
 NBasis=    23 RedAO= T EigKep=  1.80D-02  NBF=    23
 NBsUse=    23 1.00D-06 EigRej= -1.00D+00 NBFU=    23
 Precomputing XC quadrature grid using
 IXCGrd= 4 IRadAn=           5 IRanWt=          -1 IRanGd=           0 AccXCQ= 0.00D+00.
 Generated NRdTot=       0 NPtTot=           0 NUsed=           0 NTot=          32
 NSgBfM=    23    23    23    23    23 MxSgAt=     5 MxSgA2=     5.
 Leave Link  302 at Tue Oct 15 17:32:00 2019, MaxMem= 13421772800 cpu:               4.3 elap:               0.1
 (Enter /soft/gaussian/16-a.03/AVX2/g16/l303.exe)
 DipDrv:  MaxL=1.
 Leave Link  303 at Tue Oct 15 17:32:00 2019, MaxMem= 13421772800 cpu:               0.8 elap:               0.0
 (Enter /soft/gaussian/16-a.03/AVX2/g16/l401.exe)
 Lowest energy guess from the checkpoint file:  "/scratch/Gau-184337.chk"
 B after Tr=     0.000000    0.000000    0.000000
         Rot=   -0.543675   -0.102303   -0.035492    0.832281 Ang=-245.87 deg.
 Guess basis will be translated and rotated to current coordinates.
 B after Tr=     0.000000    0.000000    0.000000
         Rot=    0.923822    0.000993    0.127536   -0.360952 Ang=  45.02 deg.
 Guess basis will be translated and rotated to current coordinates.
 CkInt1:  FT= 2.64D-02
 Max alpha theta=  0.000 degrees.
 JPrj=2 DoOrth=T DoCkMO=T.
 Leave Link  401 at Tue Oct 15 17:32:00 2019, MaxMem= 13421772800 cpu:               2.8 elap:               0.1
 (Enter /soft/gaussian/16-a.03/AVX2/g16/l502.exe)
 Keep R1 ints in memory in canonical form, NReq=31068512.
 FoFCou: FMM=F IPFlag=           0 FMFlag=           0 FMFlg1=           0
         NFxFlg=           0 DoJE=F BraDBF=F KetDBF=F FulRan=T
         wScrn=  0.000000 ICntrl=       600 IOpCl=  0 I1Cent=           0 NGrid=           0
         NMat0=    1 NMatS0=    276 NMatT0=    0 NMatD0=    1 NMtDS0=    0 NMtDT0=    0
 Symmetry not used in FoFCou.
 Two-electron integral symmetry not used.
 Closed shell SCF:
 Using DIIS extrapolation, IDIIS=  1040.
 NGot= 13421772800 LenX= 13421732188 LenY= 13421731218
 Requested convergence on RMS density matrix=1.00D-08 within 128 cycles.
 Requested convergence on MAX density matrix=1.00D-06.
 Requested convergence on             energy=1.00D-06.
 No special actions if energy rises.

 Cycle   1  Pass 1  IDiag  1:
 E= -40.5183833072291    
 DIIS: error= 1.60D-06 at cycle   1 NSaved=   1.
 NSaved= 1 IEnMin= 1 EnMin= -40.5183833072291     IErMin= 1 ErrMin= 1.60D-06
 ErrMax= 1.60D-06  0.00D+00 EMaxC= 1.00D-01 BMatC= 5.30D-11 BMatP= 5.30D-11
 IDIUse=1 WtCom= 1.00D+00 WtEn= 0.00D+00
 Coeff-Com:  0.100D+01
 Coeff:      0.100D+01
 Gap=    10.573 Goal=   None    Shift=    0.000
 RMSDP=3.45D-07 MaxDP=1.36D-06              OVMax= 2.81D-06

 Cycle   2  Pass 1  IDiag  1:
 E= -40.5183833072953     Delta-E=       -0.000000000066 Rises=F Damp=F
 DIIS: error= 3.23D-07 at cycle   2 NSaved=   2.
 NSaved= 2 IEnMin= 2 EnMin= -40.5183833072953     IErMin= 2 ErrMin= 3.23D-07
 ErrMax= 3.23D-07  0.00D+00 EMaxC= 1.00D-01 BMatC= 1.57D-12 BMatP= 5.30D-11
 IDIUse=1 WtCom= 1.00D+00 WtEn= 0.00D+00
 Coeff-Com:  0.762D-01 0.924D+00
 Coeff:      0.762D-01 0.924D+00
 Gap=     0.507 Goal=   None    Shift=    0.000
 RMSDP=7.72D-08 MaxDP=3.84D-07 DE=-6.62D-11 OVMax= 7.03D-07

 Cycle   3  Pass 1  IDiag  1:
 E= -40.5183833072969     Delta-E=       -0.000000000002 Rises=F Damp=F
 DIIS: error= 9.70D-08 at cycle   3 NSaved=   3.
 NSaved= 3 IEnMin= 3 EnMin= -40.5183833072969     IErMin= 3 ErrMin= 9.70D-08
 ErrMax= 9.70D-08  0.00D+00 EMaxC= 1.00D-01 BMatC= 2.59D-13 BMatP= 1.57D-12
 IDIUse=1 WtCom= 1.00D+00 WtEn= 0.00D+00
 Coeff-Com: -0.845D-02 0.259D+00 0.750D+00
 Coeff:     -0.845D-02 0.259D+00 0.750D+00
 Gap=     0.507 Goal=   None    Shift=    0.000
 RMSDP=2.31D-08 MaxDP=1.89D-07 DE=-1.54D-12 OVMax= 2.59D-07

 Cycle   4  Pass 1  IDiag  1:
 E= -40.5183833072971     Delta-E=       -0.000000000000 Rises=F Damp=F
 DIIS: error= 4.82D-08 at cycle   4 NSaved=   4.
 NSaved= 4 IEnMin= 4 EnMin= -40.5183833072971     IErMin= 4 ErrMin= 4.82D-08
 ErrMax= 4.82D-08  0.00D+00 EMaxC= 1.00D-01 BMatC= 4.20D-14 BMatP= 2.59D-13
 IDIUse=1 WtCom= 1.00D+00 WtEn= 0.00D+00
 Coeff-Com: -0.772D-02 0.950D-01 0.378D+00 0.535D+00
 Coeff:     -0.772D-02 0.950D-01 0.378D+00 0.535D+00
 Gap=     0.507 Goal=   None    Shift=    0.000
 RMSDP=7.17D-09 MaxDP=5.78D-08 DE=-2.06D-13 OVMax= 6.90D-08

 SCF Done:  E(RB3LYP) =  -40.5183833073     A.U. after    4 cycles
            NFock=  4  Conv=0.72D-08     -V/T= 2.0112
 KE= 4.007091921195D+01 PE=-1.198291686611D+02 EE= 2.584499740770D+01
 Leave Link  502 at Tue Oct 15 17:32:00 2019, MaxMem= 13421772800 cpu:               6.8 elap:               0.2
 (Enter /soft/gaussian/16-a.03/AVX2/g16/l701.exe)
 ... and contract with generalized density number  0.
 Compute integral first derivatives.
 Leave Link  701 at Tue Oct 15 17:32:00 2019, MaxMem= 13421772800 cpu:               3.9 elap:               0.1
 (Enter /soft/gaussian/16-a.03/AVX2/g16/l702.exe)
 L702 exits ... SP integral derivatives will be done elsewhere.
 Leave Link  702 at Tue Oct 15 17:32:00 2019, MaxMem= 13421772800 cpu:               0.8 elap:               0.0
 (Enter /soft/gaussian/16-a.03/AVX2/g16/l703.exe)
 Integral derivatives from FoFJK, PRISM(SPDF).
 Compute integral first derivatives, UseDBF=F ICtDFT=           0.
 Calling FoFJK, ICntrl=      2127 FMM=F ISym2X=0 I1Cent= 0 IOpClX= 0 NMat=1 NMatS=1 NMatT=0.
 FoFJK:  IHMeth= 1 ICntrl=    2127 DoSepK=F KAlg= 0 I1Cent=           0 FoldK=F
 IRaf=         0 NMat=       1 IRICut=       1 DoRegI=T DoRafI=F ISym2E= 0 IDoP0=0 IntGTp=1.
 FoFCou: FMM=F IPFlag=           0 FMFlag=      100000 FMFlg1=         800
         NFxFlg=           0 DoJE=F BraDBF=F KetDBF=F FulRan=T
         wScrn=  0.000000 ICntrl=      2127 IOpCl=  0 I1Cent=           0 NGrid=           0
         NMat0=    1 NMatS0=      1 NMatT0=    0 NMatD0=    1 NMtDS0=    0 NMtDT0=    0
 Symmetry not used in FoFCou.
 Leave Link  703 at Tue Oct 15 17:32:00 2019, MaxMem= 13421772800 cpu:               6.8 elap:               0.2
 (Enter /soft/gaussian/16-a.03/AVX2/g16/l716.exe)
 Dipole        = 2.46835210D-06-1.05267253D-05 5.79022455D-06
 ***** Axes restored to original set *****
 -------------------------------------------------------------------
 Center     Atomic                   Forces (Hartrees/Bohr)
 Number     Number              X              Y              Z
 -------------------------------------------------------------------
      1        6          -0.000007310   -0.000003579   -0.000005734
      2        1           0.000002508    0.000000264   -0.000022770
      3        1          -0.000020000    0.000002045    0.000010356
      4        1           0.000013258   -0.000015488    0.000008264
      5        1           0.000011545    0.000016757    0.000009885
 -------------------------------------------------------------------
 Cartesian Forces:  Max     0.000022770 RMS     0.000011920
 Leave Link  716 at Tue Oct 15 17:32:01 2019, MaxMem= 13421772800 cpu:               0.9 elap:               0.0
 (Enter /soft/gaussian/16-a.03/AVX2/g16/l103.exe)

 GradGradGradGradGradGradGradGradGradGradGradGradGradGradGradGradGradGrad
 Berny optimization.
 Using GEDIIS/GDIIS optimizer.
 FormGI is forming the generalized inverse of G from B-inverse, IUseBI=4.
 Internal  Forces:  Max     0.000022770 RMS     0.000012055
 Search for a local minimum.
 Step number   4 out of a maximum of   24
 All quantities printed in internal units (Hartrees-Bohrs-Radians)
 RMS Force = .12055D-04 SwitMx=.10000D-02 MixMth= 2
 Mixed Optimization -- En-DIIS/RFO-DIIS
 Swapping is turned off.
 Update second derivatives using D2CorX and points    1    2    3    4
 DE= -3.45D-08 DEPred=-3.22D-09 R= 1.07D+01
 Trust test= 1.07D+01 RLast= 1.69D-04 DXMaxT set to 1.50D-01
 The second derivative matrix:
                          R1        R2        R3        R4        A1
           R1           0.35022
           R2           0.00392   0.34890
           R3           0.00204   0.00141   0.34837
           R4           0.00165   0.00094   0.00397   0.35171
           A1           0.00432   0.00431   0.00067  -0.00120   0.08003
           A2           0.00007   0.00006  -0.00118  -0.00186  -0.00263
           A3           0.00019   0.00015  -0.00126  -0.00199   0.00686
           A4           0.00103   0.00097  -0.00275  -0.00478  -0.01172
           A5          -0.00076  -0.00075   0.00252   0.00436   0.02515
           A6          -0.00485  -0.00474   0.00199   0.00548   0.06231
           D1           0.00413   0.00409  -0.00382  -0.00788   0.00733
           D2          -0.00162  -0.00161   0.00212   0.00408  -0.00306
           D3          -0.00103  -0.00102   0.00090   0.00187  -0.00159
           D4           0.00059   0.00058  -0.00122  -0.00221   0.00148
                          A2        A3        A4        A5        A6
           A2           0.16021
           A3           0.00070   0.16022
           A4           0.00043   0.00234   0.16053
           A5           0.00029  -0.00301   0.00222   0.15306
           A6           0.00099  -0.00711   0.00619  -0.01773   0.11534
           D1           0.00283   0.00347   0.00841  -0.00716  -0.01487
           D2          -0.00128  -0.00160  -0.00380   0.00319   0.00656
           D3          -0.00068  -0.00087  -0.00203   0.00168   0.00348
           D4           0.00060   0.00073   0.00177  -0.00151  -0.00308
                          D1        D2        D3        D4
           D1           0.02146
           D2          -0.00894   0.00647
           D3          -0.00466   0.00218   0.00344
           D4           0.00428  -0.00200  -0.00104   0.00326
 ITU=  0 -1  1  0
     Eigenvalues ---    0.03942   0.05717   0.08330   0.15685   0.16007
     Eigenvalues ---    0.34554   0.34561   0.35216   0.35704
 En-DIIS/RFO-DIIS/Sim-DIIS IScMMF=       -3 using points:     4    3    2    1
 RFO step:  Lambda=-6.04442958D-09.
 NNeg= 0 NGDIIS= 4 SimSw=  2.50D-03 Rises=F DC= -3.45D-08 SmlDif=  1.00D-05
 NRisDI= 0 DoIntr=F SqrtH=F CThrHd= 10.0 CDAdj=  3.0
 RMS Error=  0.4727784350D-04 NUsed= 4 OKEnD=F EnDIS=F
 InvSVX:  RCond= 1.50D-11 Info=           0 Equed=N FErr=  6.80D-14 BErr=  7.50D-17
 DIIS inversion failure, remove point   4.
 InvSVX:  RCond= 8.72D-10 Info=           0 Equed=N FErr=  1.47D-15 BErr=  5.58D-17
 DIIS inversion failure, remove point   3.
 InvSVX:  RCond= 7.11D-09 Info=           0 Equed=N FErr=  9.81D-16 BErr=  0.00D+00
 DIIS inversion failure, remove point   2.
 Use linear search instead of GDIIS.
 RFO step:  Lambda= 0.00000000D+00 EMin= 3.94159065D-02
 Quartic linear search produced a step of -0.02763.
 Iteration  1 RMS(Cart)=  0.00006961 RMS(Int)=  0.00000001
 Iteration  2 RMS(Cart)=  0.00000001 RMS(Int)=  0.00000000
 ITry= 1 IFail=0 DXMaxC= 1.30D-04 DCOld= 1.00D+10 DXMaxT= 1.50D-01 DXLimC= 3.00D+00 Rises=F
 Variable       Old X    -DE/DX   Delta X   Delta X   Delta X     New X
                                 (Linear)    (Quad)   (Total)
    R1        2.06603  -0.00002  -0.00000  -0.00003  -0.00004   2.06600
    R2        2.06603  -0.00002  -0.00000  -0.00003  -0.00004   2.06599
    R3        2.06603  -0.00002  -0.00000  -0.00002  -0.00002   2.06601
    R4        2.06604  -0.00002  -0.00000  -0.00001  -0.00001   2.06603
    A1        1.91068  -0.00000  -0.00000   0.00022   0.00022   1.91090
    A2        1.91064  -0.00000  -0.00000  -0.00001  -0.00001   1.91063
    A3        1.91064  -0.00000  -0.00000  -0.00002  -0.00002   1.91061
    A4        1.91065  -0.00000  -0.00000  -0.00001  -0.00001   1.91065
    A5        1.91061   0.00000   0.00000  -0.00004  -0.00004   1.91057
    A6        1.91058   0.00000   0.00000  -0.00014  -0.00014   1.91044
    D1        2.09447  -0.00000  -0.00000   0.00026   0.00026   2.09473
    D2       -2.09444   0.00000   0.00000  -0.00023  -0.00023  -2.09467
    D3        2.09437   0.00000   0.00000  -0.00011  -0.00011   2.09426
    D4       -2.09437  -0.00000  -0.00000   0.00012   0.00012  -2.09426
         Item               Value     Threshold  Converged?
 Maximum Force            0.000023     0.000015     NO 
 RMS     Force            0.000012     0.000010     NO 
 Maximum Displacement     0.000130     0.000060     NO 
 RMS     Displacement     0.000070     0.000040     NO 
 Predicted change in Energy=-4.733370D-09
 GradGradGradGradGradGradGradGradGradGradGradGradGradGradGradGradGradGrad

 Leave Link  103 at Tue Oct 15 17:32:01 2019, MaxMem= 13421772800 cpu:               0.6 elap:               0.0
 (Enter /soft/gaussian/16-a.03/AVX2/g16/l202.exe)
                          Input orientation:                          
 ---------------------------------------------------------------------
 Center     Atomic      Atomic             Coordinates (Angstroms)
 Number     Number       Type             X           Y           Z
 ---------------------------------------------------------------------
      1          6           0        0.000052    0.000003    0.000038
      2          1           0       -0.000088   -0.000013    1.093315
      3          1           0        1.030753    0.000016   -0.364531
      4          1           0       -0.515447    0.892580   -0.364440
      5          1           0       -0.515345   -0.892637   -0.364449
 ---------------------------------------------------------------------
                    Distance matrix (angstroms):
                    1          2          3          4          5
     1  C    0.000000
     2  H    1.093277   0.000000
     3  H    1.093277   1.785483   0.000000
     4  H    1.093287   1.785320   1.785331   0.000000
     5  H    1.093294   1.785314   1.785287   1.785217   0.000000
 Stoichiometry    CH4
 Framework group  C1[X(CH4)]
 Deg. of freedom     9
 Full point group                 C1      NOp   1
 RotChk:  IX=3 Diff= 1.69D-01
 Largest Abelian subgroup         C1      NOp   1
 Largest concise Abelian subgroup C1      NOp   1
                         Standard orientation:                         
 ---------------------------------------------------------------------
[...]
 Requested convergence on             energy=1.00D-06.
 No special actions if energy rises.

 Cycle   1  Pass 1  IDiag  1:
 E= -40.5183833053767    
 DIIS: error= 7.12D-06 at cycle   1 NSaved=   1.
 NSaved= 1 IEnMin= 1 EnMin= -40.5183833053767     IErMin= 1 ErrMin= 7.12D-06
 ErrMax= 7.12D-06  0.00D+00 EMaxC= 1.00D-01 BMatC= 2.01D-09 BMatP= 2.01D-09
 IDIUse=1 WtCom= 1.00D+00 WtEn= 0.00D+00
 Coeff-Com:  0.100D+01
 Coeff:      0.100D+01
 Gap=     2.235 Goal=   None    Shift=    0.000
 RMSDP=2.27D-06 MaxDP=1.17D-05              OVMax= 2.06D-05

 Cycle   2  Pass 1  IDiag  1:
 E= -40.5183833078646     Delta-E=       -0.000000002488 Rises=F Damp=F
 DIIS: error= 3.62D-06 at cycle   2 NSaved=   2.
 NSaved= 2 IEnMin= 2 EnMin= -40.5183833078646     IErMin= 2 ErrMin= 3.62D-06
 ErrMax= 3.62D-06  0.00D+00 EMaxC= 1.00D-01 BMatC= 2.10D-10 BMatP= 2.01D-09
 IDIUse=1 WtCom= 1.00D+00 WtEn= 0.00D+00
 Coeff-Com:  0.157D+00 0.843D+00
 Coeff:      0.157D+00 0.843D+00
 Gap=     0.507 Goal=   None    Shift=    0.000
 RMSDP=8.93D-07 MaxDP=6.06D-06 DE=-2.49D-09 OVMax= 7.77D-06

 Cycle   3  Pass 1  IDiag  1:
 E= -40.5183833079680     Delta-E=       -0.000000000103 Rises=F Damp=F
 DIIS: error= 2.62D-06 at cycle   3 NSaved=   3.
 NSaved= 3 IEnMin= 3 EnMin= -40.5183833079680     IErMin= 3 ErrMin= 2.62D-06
 ErrMax= 2.62D-06  0.00D+00 EMaxC= 1.00D-01 BMatC= 1.19D-10 BMatP= 2.10D-10
 IDIUse=1 WtCom= 1.00D+00 WtEn= 0.00D+00
 Coeff-Com:  0.299D-02 0.428D+00 0.569D+00
 Coeff:      0.299D-02 0.428D+00 0.569D+00
 Gap=     0.507 Goal=   None    Shift=    0.000
 RMSDP=3.84D-07 MaxDP=3.05D-06 DE=-1.03D-10 OVMax= 3.45D-06

 Cycle   4  Pass 1  IDiag  1:
 E= -40.5183833080870     Delta-E=       -0.000000000119 Rises=F Damp=F
 DIIS: error= 2.19D-07 at cycle   4 NSaved=   4.
 NSaved= 4 IEnMin= 4 EnMin= -40.5183833080870     IErMin= 4 ErrMin= 2.19D-07
 ErrMax= 2.19D-07  0.00D+00 EMaxC= 1.00D-01 BMatC= 1.10D-12 BMatP= 1.19D-10
 IDIUse=1 WtCom= 1.00D+00 WtEn= 0.00D+00
 Coeff-Com: -0.784D-02 0.931D-01 0.166D+00 0.749D+00
 Coeff:     -0.784D-02 0.931D-01 0.166D+00 0.749D+00
 Gap=     0.507 Goal=   None    Shift=    0.000
 RMSDP=3.91D-08 MaxDP=2.27D-07 DE=-1.19D-10 OVMax= 4.18D-07

 Cycle   5  Pass 1  IDiag  1:
 E= -40.5183833080882     Delta-E=       -0.000000000001 Rises=F Damp=F
 DIIS: error= 1.00D-08 at cycle   5 NSaved=   5.
 NSaved= 5 IEnMin= 5 EnMin= -40.5183833080882     IErMin= 5 ErrMin= 1.00D-08
 ErrMax= 1.00D-08  0.00D+00 EMaxC= 1.00D-01 BMatC= 2.94D-15 BMatP= 1.10D-12
 IDIUse=1 WtCom= 1.00D+00 WtEn= 0.00D+00
 Coeff-Com: -0.832D-03 0.470D-02 0.919D-02 0.789D-01 0.908D+00
 Coeff:     -0.832D-03 0.470D-02 0.919D-02 0.789D-01 0.908D+00
 Gap=     0.507 Goal=   None    Shift=    0.000
 RMSDP=3.39D-09 MaxDP=1.44D-08 DE=-1.19D-12 OVMax= 2.67D-08

 SCF Done:  E(RB3LYP) =  -40.5183833081     A.U. after    5 cycles
            NFock=  5  Conv=0.34D-08     -V/T= 2.0112
 KE= 4.007108925633D+01 PE=-1.198300993769D+02 EE= 2.584535111163D+01
 Leave Link  502 at Tue Oct 15 17:32:02 2019, MaxMem= 13421772800 cpu:               7.2 elap:               0.2
 (Enter /soft/gaussian/16-a.03/AVX2/g16/l701.exe)
 ... and contract with generalized density number  0.
 Compute integral first derivatives.
 Leave Link  701 at Tue Oct 15 17:32:03 2019, MaxMem= 13421772800 cpu:               4.0 elap:               0.1
 (Enter /soft/gaussian/16-a.03/AVX2/g16/l702.exe)
 L702 exits ... SP integral derivatives will be done elsewhere.
 Leave Link  702 at Tue Oct 15 17:32:03 2019, MaxMem= 13421772800 cpu:               0.8 elap:               0.0
 (Enter /soft/gaussian/16-a.03/AVX2/g16/l703.exe)
 Integral derivatives from FoFJK, PRISM(SPDF).
 Compute integral first derivatives, UseDBF=F ICtDFT=           0.
 Calling FoFJK, ICntrl=      2127 FMM=F ISym2X=0 I1Cent= 0 IOpClX= 0 NMat=1 NMatS=1 NMatT=0.
 FoFJK:  IHMeth= 1 ICntrl=    2127 DoSepK=F KAlg= 0 I1Cent=           0 FoldK=F
 IRaf=         0 NMat=       1 IRICut=       1 DoRegI=T DoRafI=F ISym2E= 0 IDoP0=0 IntGTp=1.
 FoFCou: FMM=F IPFlag=           0 FMFlag=      100000 FMFlg1=         800
         NFxFlg=           0 DoJE=F BraDBF=F KetDBF=F FulRan=T
         wScrn=  0.000000 ICntrl=      2127 IOpCl=  0 I1Cent=           0 NGrid=           0
         NMat0=    1 NMatS0=      1 NMatT0=    0 NMatD0=    1 NMtDS0=    0 NMtDT0=    0
 Symmetry not used in FoFCou.
 Leave Link  703 at Tue Oct 15 17:32:03 2019, MaxMem= 13421772800 cpu:               6.7 elap:               0.2
 (Enter /soft/gaussian/16-a.03/AVX2/g16/l716.exe)
 Dipole        =-4.05506773D-08-3.62965500D-07 4.34559299D-07
 ***** Axes restored to original set *****
 -------------------------------------------------------------------
 Center     Atomic                   Forces (Hartrees/Bohr)
 Number     Number              X              Y              Z
 -------------------------------------------------------------------
      1        6           0.000000227   -0.000000759   -0.000000068
      2        1           0.000000001   -0.000000010   -0.000000001
      3        1          -0.000000149    0.000000251   -0.000000076
      4        1          -0.000000017    0.000000401    0.000000068
      5        1          -0.000000063    0.000000117    0.000000076
 -------------------------------------------------------------------
 Cartesian Forces:  Max     0.000000759 RMS     0.000000247
 Leave Link  716 at Tue Oct 15 17:32:03 2019, MaxMem= 13421772800 cpu:               0.9 elap:               0.0
 (Enter /soft/gaussian/16-a.03/AVX2/g16/l103.exe)

 GradGradGradGradGradGradGradGradGradGradGradGradGradGradGradGradGradGrad
 Berny optimization.
 Using GEDIIS/GDIIS optimizer.
 FormGI is forming the generalized inverse of G from B-inverse, IUseBI=4.
 Internal  Forces:  Max     0.000000312 RMS     0.000000138
 Search for a local minimum.
 Step number   6 out of a maximum of   24
 All quantities printed in internal units (Hartrees-Bohrs-Radians)
 RMS Force = .13781D-06 SwitMx=.10000D-02 MixMth= 2
 Mixed Optimization -- En-DIIS/RFO-DIIS
 Swapping is turned off.
 Update second derivatives using D2CorX and points    1    2    4    5    6
 DE= -1.57D-08 DEPred=-8.07D-09 R= 1.95D+00
 Trust test= 1.95D+00 RLast= 5.81D-04 DXMaxT set to 7.50D-02
 The second derivative matrix:
                          R1        R2        R3        R4        A1
           R1           0.34977
           R2           0.00346   0.34843
           R3           0.00342   0.00272   0.35160
           R4           0.00021  -0.00056   0.00433   0.34927
           A1           0.00617   0.00607   0.00199   0.00194   0.07541
           A2          -0.00185  -0.00188  -0.00319  -0.00385  -0.00039
           A3           0.00142   0.00131   0.00004  -0.00085   0.00626
           A4          -0.00100  -0.00116  -0.00497  -0.00688  -0.00863
           A5           0.00049   0.00059   0.00408   0.00541   0.02346
           A6          -0.00524  -0.00494   0.00205   0.00423   0.06390
           D1           0.00447   0.00420  -0.00436  -0.00616   0.00446
           D2           0.00004   0.00017   0.00439   0.00499  -0.00370
           D3          -0.00015  -0.00009   0.00206   0.00236  -0.00165
           D4          -0.00019  -0.00026  -0.00233  -0.00264   0.00205
                          A2        A3        A4        A5        A6
           A2           0.16007
           A3           0.00053   0.16025
           A4           0.00034   0.00195   0.16042
           A5          -0.00011  -0.00255   0.00164   0.15396
           A6          -0.00044  -0.00645   0.00428  -0.01640   0.11511
           D1           0.00536   0.00220   0.01173  -0.00953  -0.01422
           D2          -0.00267  -0.00073  -0.00576   0.00508   0.00777
           D3          -0.00139  -0.00046  -0.00303   0.00259   0.00394
           D4           0.00127   0.00027   0.00273  -0.00249  -0.00383
                          D1        D2        D3        D4
           D1           0.02054
           D2          -0.01126   0.00940
           D3          -0.00554   0.00348   0.00401
           D4           0.00572  -0.00362  -0.00177   0.00415
 ITU=  0 -1  0 -1  1  0
     Eigenvalues ---    0.04029   0.05717   0.08459   0.15685   0.16005
     Eigenvalues ---    0.34469   0.34566   0.35213   0.35772
 En-DIIS/RFO-DIIS/Sim-DIIS IScMMF=       -3 using points:     6    5    4    3    2    1
 RFO step:  Lambda=-1.57478411D-12.
 NNeg= 0 NGDIIS= 6 SimSw=  2.50D-03 Rises=F DC= -1.57D-08 SmlDif=  1.00D-05
 NRisDI= 0 DoIntr=F SqrtH=F CThrHd= 10.0 CDAdj=  3.0
 RMS Error=  0.1043519466D-05 NUsed= 6 OKEnD=F EnDIS=F
 InvSVX:  RCond= 5.08D-13 Info=           0 Equed=N FErr=  9.85D-13 BErr=  1.04D-16
 DIIS inversion failure, remove point   6.
 InvSVX:  RCond= 8.65D-13 Info=           0 Equed=N FErr=  2.41D-13 BErr=  9.54D-17
 DIIS inversion failure, remove point   5.
 InvSVX:  RCond= 1.22D-12 Info=           0 Equed=N FErr=  1.74D-14 BErr=  9.36D-17
 DIIS inversion failure, remove point   4.
 InvSVX:  RCond= 2.12D-09 Info=           0 Equed=N FErr=  1.14D-15 BErr=  6.37D-17
 DIIS inversion failure, remove point   3.
 InvSVX:  RCond= 3.80D-07 Info=           0 Equed=N FErr=  8.88D-16 BErr=  8.13D-17
 RFO-DIIS uses    2 points instead of    6
 DidBck=F Rises=F RFO-DIIS coefs:    0.99976    0.00024    0.00000    0.00000    0.00000
                  RFO-DIIS coefs:    0.00000
 Iteration  1 RMS(Cart)=  0.00000076 RMS(Int)=  0.00000000
 ITry= 1 IFail=0 DXMaxC= 1.46D-06 DCOld= 1.00D+10 DXMaxT= 7.50D-02 DXLimC= 3.00D+00 Rises=F
 Variable       Old X    -DE/DX   Delta X   Delta X   Delta X     New X
                                 (Linear)    (Quad)   (Total)
    R1        2.06597  -0.00000   0.00000  -0.00000   0.00000   2.06597
    R2        2.06597  -0.00000   0.00000  -0.00000  -0.00000   2.06597
    R3        2.06597   0.00000   0.00000   0.00000   0.00000   2.06597
    R4        2.06597  -0.00000   0.00000  -0.00000  -0.00000   2.06597
    A1        1.91063   0.00000   0.00000   0.00000   0.00000   1.91063
    A2        1.91063  -0.00000  -0.00000  -0.00000  -0.00000   1.91063
    A3        1.91063  -0.00000  -0.00000   0.00000   0.00000   1.91063
    A4        1.91064  -0.00000   0.00000  -0.00000  -0.00000   1.91063
    A5        1.91063   0.00000  -0.00000   0.00000   0.00000   1.91063
    A6        1.91063   0.00000  -0.00000   0.00000   0.00000   1.91063
    D1        2.09440  -0.00000   0.00000  -0.00000  -0.00000   2.09440
    D2       -2.09439  -0.00000  -0.00000  -0.00000  -0.00000  -2.09440
    D3        2.09440  -0.00000  -0.00000  -0.00000  -0.00000   2.09439
    D4       -2.09440   0.00000   0.00000   0.00000   0.00000  -2.09439
         Item               Value     Threshold  Converged?
 Maximum Force            0.000000     0.000015     YES
 RMS     Force            0.000000     0.000010     YES
 Maximum Displacement     0.000001     0.000060     YES
 RMS     Displacement     0.000001     0.000040     YES
 Predicted change in Energy=-8.543813D-13
 Optimization completed.
    -- Stationary point found.
                           ----------------------------
                           !   Optimized Parameters   !
                           ! (Angstroms and Degrees)  !
 --------------------------                            --------------------------
 ! Name  Definition              Value          Derivative Info.                !
 --------------------------------------------------------------------------------
 ! R1    R(1,2)                  1.0933         -DE/DX =    0.0                 !
 ! R2    R(1,3)                  1.0933         -DE/DX =    0.0                 !
 ! R3    R(1,4)                  1.0933         -DE/DX =    0.0                 !
 ! R4    R(1,5)                  1.0933         -DE/DX =    0.0                 !
 ! A1    A(2,1,3)              109.4713         -DE/DX =    0.0                 !
 ! A2    A(2,1,4)              109.4713         -DE/DX =    0.0                 !
 ! A3    A(2,1,5)              109.4712         -DE/DX =    0.0                 !
 ! A4    A(3,1,4)              109.4714         -DE/DX =    0.0                 !
 ! A5    A(3,1,5)              109.4711         -DE/DX =    0.0                 !
 ! A6    A(4,1,5)              109.4711         -DE/DX =    0.0                 !
 ! D1    D(2,1,4,3)            120.0002         -DE/DX =    0.0                 !
 ! D2    D(2,1,5,3)           -120.0            -DE/DX =    0.0                 !
 ! D3    D(2,1,5,4)            120.0            -DE/DX =    0.0                 !
 ! D4    D(3,1,5,4)           -120.0            -DE/DX =    0.0                 !
 --------------------------------------------------------------------------------
 Largest change from initial coordinates is atom    2       0.461 Angstoms.
 GradGradGradGradGradGradGradGradGradGradGradGradGradGradGradGradGradGrad

 Leave Link  103 at Tue Oct 15 17:32:03 2019, MaxMem= 13421772800 cpu:               0.5 elap:               0.0
 (Enter /soft/gaussian/16-a.03/AVX2/g16/l202.exe)
                          Input orientation:                          
 ---------------------------------------------------------------------
 Center     Atomic      Atomic             Coordinates (Angstroms)
 Number     Number       Type             X           Y           Z
 ---------------------------------------------------------------------
      1          6           0       -0.000014   -0.000010   -0.000013
      2          1           0       -0.000013   -0.000013    1.093251
      3          1           0        1.030724    0.000034   -0.364437
      4          1           0       -0.515425    0.892614   -0.364432
      5          1           0       -0.515346   -0.892677   -0.364436
 ---------------------------------------------------------------------
                    Distance matrix (angstroms):
                    1          2          3          4          5
     1  C    0.000000
     2  H    1.093264   0.000000
     3  H    1.093264   1.785293   0.000000
     4  H    1.093264   1.785293   1.785294   0.000000
     5  H    1.093264   1.785293   1.785292   1.785291   0.000000
 Stoichiometry    CH4
 Framework group  C1[X(CH4)]
 Deg. of freedom     9
 Full point group                 C1      NOp   1
 RotChk:  IX=0 Diff= 2.22D-09
 Largest Abelian subgroup         C1      NOp   1
 Largest concise Abelian subgroup C1      NOp   1
                         Standard orientation:                         
 ---------------------------------------------------------------------
 Center     Atomic      Atomic             Coordinates (Angstroms)
 Number     Number       Type             X           Y           Z
 ---------------------------------------------------------------------
      1          6           0       -0.000000    0.000000   -0.000000
      2          1           0       -0.125584    1.072472    0.171051
      3          1           0        0.938061   -0.176635   -0.532981
      4          1           0       -0.835103   -0.373837   -0.598395
      5          1           0        0.022627   -0.522002    0.960327
 ---------------------------------------------------------------------
 Rotational constants (GHZ):         157.3307028         157.3306563         157.3303712
 Leave Link  202 at Tue Oct 15 17:32:03 2019, MaxMem= 13421772800 cpu:               0.5 elap:               0.0
 (Enter /soft/gaussian/16-a.03/AVX2/g16/l601.exe)
 Copying SCF densities to generalized density rwf, IOpCl= 0 IROHF=0.

 **********************************************************************

            Population analysis using the SCF density.

 **********************************************************************

 Orbital symmetries:
       Occupied  (A) (A) (A) (A) (A)
       Virtual   (A) (A) (A) (A) (A) (A) (A) (A) (A) (A) (A) (A)
                 (A) (A) (A) (A) (A) (A)
 The electronic state is 1-A.
 Alpha  occ. eigenvalues --  -10.16694  -0.69030  -0.38907  -0.38907  -0.38907
 Alpha virt. eigenvalues --    0.11792   0.17654   0.17654   0.17654   0.53325
 Alpha virt. eigenvalues --    0.53325   0.53325   0.89773   0.89773   0.89773
 Alpha virt. eigenvalues --    0.94747   1.09985   1.65652   1.65652   2.24362
 Alpha virt. eigenvalues --    2.24362   2.24362   4.17917
          Condensed to atoms (all electrons):
               1          2          3          4          5
     1  C    5.093075   0.383779   0.383779   0.383779   0.383779
     2  H    0.383779   0.539546  -0.026791  -0.026791  -0.026791
     3  H    0.383779  -0.026791   0.539546  -0.026791  -0.026791
     4  H    0.383779  -0.026791  -0.026791   0.539546  -0.026791
     5  H    0.383779  -0.026791  -0.026791  -0.026791   0.539547
 Mulliken charges:
               1
     1  C   -0.628191
     2  H    0.157048
     3  H    0.157048
     4  H    0.157048
     5  H    0.157048
 Sum of Mulliken charges =   0.00000
 Mulliken charges with hydrogens summed into heavy atoms:
               1
     1  C    0.000000
 Electronic spatial extent (au):  <R**2>=             35.4770
 Charge=              0.0000 electrons
 Dipole moment (field-independent basis, Debye):
    X=             -0.0000    Y=             -0.0000    Z=              0.0000  Tot=              0.0000
 Quadrupole moment (field-independent basis, Debye-Ang):
   XX=             -8.2514   YY=             -8.2514   ZZ=             -8.2514
   XY=              0.0000   XZ=              0.0000   YZ=              0.0000
 Traceless Quadrupole moment (field-independent basis, Debye-Ang):
   XX=              0.0000   YY=              0.0000   ZZ=             -0.0000
   XY=              0.0000   XZ=              0.0000   YZ=              0.0000
 Octapole moment (field-independent basis, Debye-Ang**2):
  XXX=              0.1608  YYY=              0.6895  ZZZ=              0.3502  XYY=             -0.1506
  XXY=             -0.2665  XXZ=             -0.5892  XZZ=             -0.0103  YZZ=             -0.4230
  YYZ=              0.2389  XYZ=             -0.0886
 Hexadecapole moment (field-independent basis, Debye-Ang**3):
 XXXX=            -15.0939 YYYY=            -14.9292 ZZZZ=            -15.3046 XXXY=              0.0733
 XXXZ=             -0.0964 YYYX=             -0.1257 YYYZ=              0.1141 ZZZX=              0.0592
 ZZZY=             -0.3677 XXYY=             -5.3223 XXZZ=             -4.9470 YYZZ=             -5.1116
 XXYZ=              0.2536 YYXZ=              0.0372 ZZXY=              0.0524
 N-N= 1.339527570084D+01 E-N=-1.198300995416D+02  KE= 4.007108925633D+01
 No NMR shielding tensors so no spin-rotation constants.
 Leave Link  601 at Tue Oct 15 17:32:03 2019, MaxMem= 13421772800 cpu:               3.4 elap:               0.1
 (Enter /soft/gaussian/16-a.03/AVX2/g16/l9999.exe)
 B after Tr=     0.000016    0.000009    0.000013
         Rot=    1.000000   -0.000003    0.000004   -0.000001 Ang=  -0.00 deg.
 Final structure in terms of initial Z-matrix:
 C
 H,1,B1
 H,1,B2,2,A2
 H,1,B3,2,A3,3,D3,0
 H,1,B4,4,A4,3,D4,0
      Variables:
 B1=1.09326406
 B2=1.0932642
 A2=109.47127239
 B3=1.09326382
 A3=109.47128215
 D3=-120.0002475
 B4=1.0932644
 A4=109.47109125
 D4=-119.99984142
 1\1\GINC-BDW-0157\FOpt\RB3LYP\6-31G(d)\C1H4\LWARD\15-Oct-2019\0\\#P b3
 lyp/6-31G(d) OPT=Tight\\H4 C1\\0,1\C,-0.0000144827,-0.0000095437,-0.00
 00128361\H,-0.0000125183,-0.0000128298,1.0932512264\H,1.0307239009,0.0
 000336023,-0.3644370177\H,-0.5154247199,0.8926141292,-0.3644316059\H,-
 0.5153464231,-0.8926772576,-0.3644362074\\Version=ES64L-G16RevA.03\Sta
 te=1-A\HF=-40.5183833\RMSD=3.388e-09\RMSF=2.467e-07\Dipole=-0.0000003,
 -0.0000004,-0.0000003\Quadrupole=0.0000011,-0.0000031,0.000002,-0.0000
 038,0.0000003,0.0000003\PG=C01 [X(C1H4)]\\@


 WHEN ALL ELSE FAILS, LOOK AT THE SCHRODINGER EQUATION.
     -- RUSSELL T. PACK, APRIL 1978
 Job cpu time:       0 days  0 hours  3 minutes 41.7 seconds.
 Elapsed time:       0 days  0 hours  0 minutes  8.4 seconds.
 File lengths (MBytes):  RWF=      6 Int=      0 D2E=      0 Chk=      1 Scr=      1
 Normal termination of Gaussian 16 at Tue Oct 15 17:32:03 2019.
